1000
stepId: 0
C_0			69.92687700354901			87.03928168494774			35.180661640054026			
C_0			89.78979941432391			92.21327313998103			91.42267644688695			
C_0			2.8659041339637814			15.331824904399626			26.237172713506883			
C_0			41.44434917949542			50.10040198107893			21.303495925011763			
C_0			35.989426482563935			79.24559994082433			39.13618000191601			
C_0			2.873267878731789			87.3134544074776			75.25540483341774			
C_0			96.02049614858666			70.0990618543357			88.00726397100976			
C_0			68.8552294571946			1.0881750359927778			78.71917208039314			
C_0			64.3330587229786			35.20742692702591			5.389369046330417			
C_0			78.94176734128395			3.7958439874664074			59.01198400468463			
C_0			11.166230369524499			54.452848051572346			30.08767156695794			
C_0			29.64779441878167			42.08945326051725			71.61639348418181			
C_0			40.25425362997075			58.97103147879703			94.6884929843785			
C_0			9.719397949768837			26.425896429064345			62.98463117571118			
C_0			6.256774106490659			97.11830764016457			24.864800764576334			
C_0			41.65925693228658			96.48595158321996			35.27238602537673			
C_0			83.61598809472365			37.377569384093555			40.18087224646967			
C_0			52.90336621111088			16.709203456480903			51.789987243754645			
C_0			6.629622128286028			95.8996528022882			17.644385634689563			
C_0			53.31158170987793			57.550632655564996			25.087307617138343			
C_0			37.803360924196625			13.056082452042562			30.01147659707434			
C_0			63.618899341037874			96.46564762782768			65.69448148686345			
C_0			43.31172766662036			8.485201673744847			78.26636950948912			
C_0			3.5420088669424254			59.54476699240392			96.5336891981646			
C_0			91.21944212025252			77.11874720761865			96.40123467546105			
C_0			94.38162626933594			3.8393834533474003			93.49554818229176			
C_0			37.749353803468985			63.74046093369952			53.430190552286106			
C_0			74.92825792918755			12.625081847859498			38.922190458343984			
C_0			19.269960873910964			64.59974801621574			16.487678289356822			
C_0			41.67718909470168			84.20501443106754			43.73060108396547			
C_0			29.943938289154115			50.01699663558337			66.07750591248713			
C_0			54.88572414615807			49.61698107612749			32.30433793575648			
C_0			86.44558919568854			9.995556444127185			83.43318190126399			
C_0			55.64672274686612			58.21544371829441			98.42697723293456			
C_0			78.32341761479745			78.5086958854682			16.089541386697427			
C_0			0.38038271226152887			42.18255766274517			41.461882183793676			
C_0			84.14575041393604			53.95582610581201			93.90367224626695			
C_0			77.1207447056166			73.397013683414			20.422545504324052			
C_0			25.40116924238569			70.56595498373606			28.841459066020146			
C_0			41.542566013607974			87.75971769524291			14.936181899389355			
C_0			0.29802125491089626			85.24049308099416			19.993402525882388			
C_0			23.372950218088317			94.23276156775651			31.478027674562036			
C_0			23.372328444719404			78.13221231739908			74.81622026281354			
C_0			58.88311784849013			46.87143216173511			20.43008946452538			
C_0			21.612359495442913			54.500095611084184			90.0189836371971			
C_0			10.469244654232368			18.58472015741297			83.96852116079965			
C_0			48.26992386200422			16.09616901117078			44.51564733782618			
C_0			27.50488171869825			23.001767209145328			20.66860952929752			
C_0			58.46955986018543			8.252718699320871			93.32855748703545			
C_0			75.96628994334247			25.591387865773505			13.883107339879984			
C_0			0.15091953133967717			64.35693111942801			8.316484689619685			
C_0			39.7688853354203			24.207994825668532			75.93353238724274			
C_0			55.97847719734206			62.62237861623659			49.36963708570797			
C_0			50.96776531171814			61.836622516762084			87.17780431905086			
C_0			90.00493125613673			85.77821910282961			20.704463050972997			
C_0			95.31595234815276			26.985763275446583			50.99116242108012			
C_0			12.64670718325107			66.97010256260072			40.73181869132917			
C_0			25.175405049940114			58.62138021428511			35.218612315299204			
C_0			51.67598850572372			3.961719012224907			42.4794871563286			
C_0			84.1609316477101			78.62694742239658			5.011191181244545			
C_0			70.3946032290392			97.49029873566977			3.7281750645833833			
C_0			52.57581635863349			43.57989071261991			18.117690480329795			
C_0			89.06044520710826			91.89850430150858			53.06027510434185			
C_0			84.76809368020828			24.407455488747075			53.328606352930386			
C_0			66.30262958359461			70.16145443716482			98.30186110037305			
C_0			58.782968813891024			64.66697108046654			57.20722672737488			
C_0			75.19171621863666			39.06141632419412			7.92684588211311			
C_0			54.58267936162873			30.414940802106194			9.52948909595367			
C_0			47.517230016108726			71.13166716686763			41.642069778773916			
C_0			33.81016263388079			83.70341495257206			39.711866859136194			
C_0			60.5452379230551			90.38016758105324			63.52453866070476			
C_0			5.434984173184998			91.67398912769895			45.345440780604974			
C_0			46.15053355096862			70.68576297514902			86.86615080743006			
C_0			22.99468282664714			85.79485431830616			43.613246975590435			
C_0			30.549755099119835			68.44905538998562			44.22029284935015			
C_0			90.79438312248776			14.382345004544995			59.472369024907664			
C_0			95.7382808654253			34.102493145645255			21.337066744897026			
C_0			1.323112550527339			73.71245366127864			57.0808588171991			
C_0			83.58510551342462			81.20304255732232			72.16663080409695			
C_0			95.42932693429164			71.76538450335413			29.99041671819951			
C_0			33.57940518121947			28.344606582509545			85.58759225442539			
C_0			98.04038942655725			25.69479173157544			97.6499347908814			
C_0			3.191545875072066			16.66207983474781			46.6586243610716			
C_0			15.044369159168614			69.24644414424792			1.3544615920584313			
C_0			17.41930606726183			28.837047079520637			10.46490663261821			
C_0			15.480891352080251			43.08540164654418			60.69187938738983			
C_0			29.023141286981723			53.78472685024563			50.81149201388523			
C_0			90.19342596904345			39.32000673449534			23.996175940468866			
C_0			40.78762899637531			60.454710322206594			81.57405790838517			
C_0			1.7531387653525576			19.036560491611997			1.5229893628475377			
C_0			66.94918696791781			9.156478406844325			15.976924212292632			
C_0			19.99960752398674			83.21577566972759			20.502833239829464			
C_0			33.089389814862315			83.0752315673503			17.395743304991164			
C_0			30.085678873074617			1.5267155377984287			33.09191449023904			
C_0			32.40625421778923			26.428089978192983			81.13757853089108			
C_0			4.778577928494821			68.40827040439412			4.908202731408629			
C_0			76.12790936627522			81.46672938946348			26.382506864092115			
C_0			16.461175118994532			94.46240466230003			18.878252923735804			
C_0			31.39681775098484			93.88891427087283			32.11278960341063			
C_0			85.48742566986223			66.0953760147836			19.281701053617773			
C_0			20.388296126318718			16.994338427012124			11.13146292677193			
C_0			96.1533264543052			34.837732036359945			59.10713521558618			
C_0			28.582074870697262			68.11411002082176			27.591456219240463			
C_0			77.61560535942621			76.82395605305283			82.25378503021405			
C_0			11.515397900864832			47.64883928932069			50.91708480360624			
C_0			29.878925691378743			94.17827948623147			95.04477681668554			
C_0			1.2330361718698613			9.8471901687466			32.387004154849606			
C_0			51.91970244173058			94.88205034127787			50.46338305701372			
C_0			53.924141515196354			5.810818552013419			49.434059450483204			
C_0			94.74993690275464			72.12531751337804			67.17524321756176			
C_0			86.49529618507346			0.8770830731689494			1.0632389531113895			
C_0			53.563903729713466			23.89356009357885			34.635678541435375			
C_0			64.35897943924697			90.44898056420995			49.54158211566996			
C_0			34.05825182241987			79.02006104833481			58.4686664545465			
C_0			97.4893592599947			7.641522066903105			87.20878902753215			
C_0			74.7632086321405			77.24273138651841			87.09629907683954			
C_0			3.4731518809700046			82.11136491507199			91.11686596548303			
C_0			93.1483140704081			42.72659046643968			33.73646958257017			
C_0			11.20975367602216			88.63622249852561			95.14175725077777			
C_0			3.9366066440740366			77.52218005288549			87.00060910222312			
C_0			18.12735550493352			25.103400188594826			21.817088512294948			
C_0			56.23056055222524			22.68601612977179			50.229205325217805			
C_0			18.002625565020193			8.431972286391186			41.70511431501496			
C_0			66.66254792220603			9.139583535959439			93.40443664398195			
C_0			81.1112824533547			41.65686858771416			63.615341737992146			
C_0			20.961211799645408			71.3233452956923			63.1677943154194			
C_0			68.59285214129791			21.19940724549454			56.06723790218704			
C_0			50.38926163122244			77.53456069528458			14.525216162494514			
C_0			78.37045261960056			47.679010345221876			90.41762560627326			
C_0			3.961658753286035			49.4323926245172			82.80914686782711			
C_0			60.198175963542845			21.113943513010735			15.070963675992955			
C_0			65.8875510831806			87.1487151944682			54.140236785108776			
C_0			66.5746263555262			28.831164539886146			83.88427186860136			
C_0			61.17327282904266			78.04304764391621			56.93224639691694			
C_0			68.20922392637668			25.86089960134117			90.67836315812511			
C_0			43.84392395320597			68.35817248412403			43.041284385957276			
C_0			5.993019386787701			9.221482278301407			5.770630208617633			
C_0			32.041233905260654			94.52903149670053			54.29098891079267			
C_0			54.23070626844032			62.683616085698766			74.43741127573512			
C_0			94.77702138993433			61.019362901937804			44.812664198025544			
C_0			65.14542894527851			2.906426241576132			55.66825027735415			
C_0			75.99350541257765			75.34327489774236			10.615165600406606			
C_0			64.97049076163178			64.01494551347633			41.6505977930606			
C_0			74.62050473464697			99.09522848182385			40.922183768145416			
C_0			94.57730047136883			80.68090686473141			72.96916445769735			
C_0			63.52882807805993			91.7718613961824			69.15119474695179			
C_0			79.52965266520637			51.70517855133002			25.05441667114402			
C_0			96.85067443584748			37.02042442259944			50.21244721314234			
C_0			77.36063871451971			11.297075911553712			91.19234094088698			
C_0			12.450220283567692			78.476478799972			2.5193180580622254			
C_0			65.08800155809028			95.2071262799551			84.32264888443153			
C_0			14.947290548417214			14.03046569492229			22.35233324190622			
C_0			83.55165511152546			47.28693587339347			61.50273224459725			
C_0			22.37816312077665			17.34914636306456			41.82416287081099			
C_0			62.79600415469948			69.8017420797643			83.58515871004121			
C_0			66.26118594662009			67.6212333110777			63.65627960095496			
C_0			84.83981861167638			20.974110413416835			30.319769465271218			
C_0			57.650243678837384			71.33195047571597			62.49070578621938			
C_0			46.875426371355836			16.045302470198642			24.40792501378286			
C_0			20.022467030180525			81.62160516012393			6.901628283060946			
C_0			24.0020120143404			96.04524672950507			83.35357581129209			
C_0			60.0617469521043			44.35838275633489			84.20785059351505			
C_0			80.49740228158775			11.091825235153674			26.30885505756373			
C_0			8.258182586872408			88.05342163716179			24.371910768424033			
C_0			81.52933441130452			84.21169101760184			55.223534703632495			
C_0			31.94808264546406			6.39208816722242			0.8879007107113313			
C_0			38.79856738361972			35.019359246271065			5.326658662549311			
C_0			38.9229962342459			85.02723655841864			50.00531932017671			
C_0			83.61756009020058			87.27068230973356			3.2829288114539			
C_0			13.90839774099849			64.49324232787139			29.02887128393834			
C_0			94.33608712186225			85.30077305809132			75.4459618526979			
C_0			4.659677523089822			39.83789032402398			23.618814108875142			
C_0			86.68065920438846			47.01816684655357			72.68026444752415			
C_0			67.36585382968867			40.26065839461707			23.38422080752919			
C_0			10.66167164326105			22.16384309875956			26.520605448774127			
C_0			44.705645962476495			8.124780130212805			43.91085338811182			
C_0			29.74276065049969			98.81633325208134			40.48305197041593			
C_0			0.7376700645286061			10.063928566548586			49.7563815890757			
C_0			44.71277851483257			76.1614527596428			68.60303092390396			
C_0			11.188165463345367			19.607579975629918			31.406457942349263			
C_0			4.266593616399838			43.83583005473931			98.30644531019709			
C_0			49.17727383142213			88.50428328823645			25.533699285810563			
C_0			25.658580903792817			93.94198057626613			64.96630428672626			
C_0			56.935236536266906			41.35101737736843			65.72810943682417			
C_0			84.42469992381888			45.5683479167427			56.05310682489682			
C_0			43.98518713269147			67.24681506565949			16.31138169683063			
C_0			38.69623058141896			6.746476101722765			38.15046360519349			
C_0			52.71180678944073			99.51089617329691			43.23255900355647			
C_0			83.53688855898007			8.042242338158989			23.072313411863277			
C_0			39.07466597299647			40.388891765971394			37.586114895093395			
C_0			78.35947385845891			2.495728872707581			37.53800191870281			
C_0			94.36795101021293			8.711619745323773			17.072348256025926			
C_0			75.0458833180202			99.39089411780411			83.5699492463005			
C_0			52.11097923353335			45.511674745414275			44.416739582758005			
C_0			76.02125613757413			35.206850324515905			72.30827228761932			
C_0			10.421424394442635			15.414150497840051			93.21420859968414			
C_0			97.64172704733612			62.171779561287664			67.99516221956293			
C_0			67.63373412439744			8.396998726759374			88.58928505638225			
C_0			27.812831278927717			41.671783840262755			95.83923321006877			
C_0			85.05509645420955			81.05232677943296			18.011864287636325			
C_0			35.25941653536607			71.44958403826168			68.09336696565462			
C_0			71.28131564983114			10.192351534382315			41.140818961111535			
C_0			63.69618582233186			13.238126780724023			31.375162446739736			
C_0			54.13715269746423			47.360433872586114			68.05093008169982			
C_0			76.70198297728096			85.08378651908363			32.938672254682785			
C_0			60.95725955291146			84.1847159576667			32.45404677654163			
C_0			82.14122196028387			77.4807961239934			84.71492424620112			
C_0			97.72748677272726			32.9169315326802			66.89236396875135			
C_0			44.33204620747348			98.91332299195238			58.1669659114266			
C_0			83.22822243289187			96.73826677915218			91.469143501058			
C_0			32.846458406128285			79.93318835001192			85.96059722340893			
C_0			31.4812085680783			28.23147618106382			0.07498463248334364			
C_0			6.345822009305923			30.91410672823671			70.9764208489749			
C_0			33.08013830574925			22.48409548061705			22.803875714017085			
C_0			1.5596602020608752			41.07066265051574			75.19224516119236			
C_0			75.4601778237758			41.81279918587729			93.13461806458287			
C_0			31.34784401448487			69.05946372081775			34.451702919529005			
C_0			84.2426409191298			15.150409498784223			75.45249084946852			
C_0			48.875000089103295			57.02632825737331			66.29612299219477			
C_0			62.5759783183091			56.968491263944564			89.26337397823725			
C_0			6.587727859544179			78.54957029270133			70.25150565482022			
C_0			57.66816981288771			60.661321493188616			57.35567744157547			
C_0			95.42392416960304			39.465565095220555			68.79700096186473			
C_0			27.94120805008069			9.220250760688364			67.22933843645914			
C_0			50.19040773938605			1.6465723011722222			75.44974117688582			
C_0			9.595852242978797			23.597427480156252			59.05875372400216			
C_0			56.70168196439911			15.398479187488922			84.69766469621564			
C_0			18.121424665412633			26.418479722544784			81.29351429676427			
C_0			27.759076293055895			96.64642299453729			45.86665618562108			
C_0			44.85018668580116			80.51384086270392			97.80284458661978			
C_0			17.238615970376937			13.702691021662805			45.472972994779795			
C_0			61.41400081726166			3.1363815961547026			7.988526602264779			
C_0			40.79964900273847			45.58223551589475			33.470700074836834			
C_0			65.25704233278312			50.320554019827966			25.69120149203723			
C_0			15.32122846001932			36.61189638684797			11.936839451473292			
C_0			28.344783451610624			48.88584446039679			10.345374351159652			
C_0			71.8303033936388			9.59626121505488			76.96350914764545			
C_0			2.5451614507334575			20.239340940090212			16.606527423040486			
C_0			72.85658047177753			35.501783700824			16.083108967302696			
C_0			29.780311721023644			2.144836081219903			84.21767599289434			
C_0			2.3412348459012966			68.4644977268787			77.4748712731667			
C_0			8.916387781275715			11.850359988941461			57.45283037264031			
C_0			62.324965949979806			7.173164272861365			64.05762816297123			
C_0			93.82639383597272			69.64692448654375			13.135779083739617			
C_0			57.27525076460239			24.06946097014062			44.35274716861879			
C_0			14.805462706732541			38.218789837294395			79.98793932619462			
C_0			28.197789052445778			47.789832627981866			78.3873785425164			
C_0			76.10002426814509			64.20599547361515			43.880016526016405			
C_0			65.6877501242964			83.25333202531267			95.14234559973562			
C_0			85.38564844877273			0.1659302434339427			34.01901471890337			
C_0			98.08484229895092			81.38518835971527			17.95896941931541			
C_0			47.40969631693706			4.513858761496714			29.059265796756605			
C_0			7.732648616880244			27.50397509947975			58.086691303014945			
C_0			86.73545289748796			31.482591845233777			60.83015233713955			
C_0			62.74318027413489			8.510781229205522			68.0119562066804			
C_0			3.136833694769514			95.1287640982618			70.407227024841			
C_0			86.08526787914063			53.10669010289415			20.5111054652394			
C_0			6.9582326150886775			16.206760765560002			60.404116714919724			
C_0			8.531270148834835			6.837640354732743			70.53801702964239			
C_0			24.92018157747662			89.75928577817352			52.17772921315922			
C_0			94.1610601861827			31.675949116496504			41.77784774798913			
C_0			50.383043144288166			17.709502561297576			31.56785890204814			
C_0			44.396812857425886			99.5319684952035			21.33171798879242			
C_0			21.98657432900657			97.60507872386532			48.86814229342503			
C_0			13.016454025949265			3.313289324971025			52.995303752447			
C_0			64.41889285085796			70.502672704027			87.39520242551386			
C_0			69.65083789603992			86.43812112517026			95.31182514432534			
C_0			12.324492160792811			68.86317434172439			70.15616922449381			
C_0			79.88219793780229			74.192792767475			28.552105711283314			
C_0			34.22935689403177			94.35131369682466			20.9658136810411			
C_0			27.88965881127632			2.3170633484898673			58.2238481590882			
C_0			66.22042521016152			25.38286689902115			12.374359282016812			
C_0			73.97888386598206			71.20917919173316			29.549231741937177			
C_0			85.53335362543265			64.61171519311443			12.564856213037533			
C_0			0.32273028045300967			91.85658480685507			75.17190949389116			
C_0			99.9303687471232			1.4570748311752868			23.780934554660437			
C_0			69.55060289367925			32.89690276558982			9.446869475024144			
C_0			89.73071240405658			78.08655262004619			89.85591861825598			
C_0			22.718267609314623			7.527947205352414			36.22402095125978			
C_0			27.244020349797616			90.92628080974654			7.496698759557152			
C_0			17.21125370608999			28.0048597559853			5.78245239164853			
C_0			49.74061325855147			17.234505405505708			88.99830622324399			
C_0			71.84087776108328			71.08829308038509			23.70641671623368			
C_0			75.52661466736988			5.955350625863465			0.15921719836838877			
C_0			20.741346244861504			35.42606136992935			86.55064801802969			
C_0			34.06586100094504			19.05756260378133			57.17704609693987			
C_0			35.781163367423375			59.93936388403809			40.64334429811337			
C_0			73.77920236422622			65.46375204791822			34.70954518259062			
C_0			51.23198718352726			77.43364753086372			24.019279399712488			
C_0			53.07393426382122			16.540973651913347			65.64088691067064			
C_0			66.1300168480761			53.219446303654			69.26560596063767			
C_0			48.01429230242149			29.417712920742613			32.614176402327786			
C_0			12.977659503693262			4.925496311625965			43.169774365073884			
C_0			72.06575160484758			56.36469780040708			4.039439337218253			
C_0			12.988733818226972			95.2465316779028			66.65589863200164			
C_0			48.86321635846439			22.212705901648967			23.01490569432527			
C_0			54.61533017955076			54.62426736861511			66.0523438743308			
C_0			17.11578993330527			55.143877781350916			21.1098831657913			
C_0			87.61232890254311			46.22240342579684			47.31605072186912			
C_0			99.54137080155382			16.313172147667267			48.785202008112016			
C_0			65.58817559573393			31.122683354727386			18.701728610351974			
C_0			11.782884873396515			89.94952695119768			68.59463736443561			
C_0			59.236461500300365			32.224182924154455			66.94821308365196			
C_0			78.94235945855402			34.35619705965747			79.1281129617572			
C_0			5.808694377562751			65.34491614031442			86.98874261412335			
C_0			27.714242348058782			14.268034523522932			39.52252113260805			
C_0			30.62835880374095			94.6634802473793			87.29309708463002			
C_0			21.828146035954987			12.208835426877695			63.56372270307554			
C_0			38.50108900771845			45.74671527690546			21.22144211685817			
C_0			53.03367681875126			68.89099956081827			95.9065197524034			
C_0			8.87480040921307			46.522035943507014			0.403602729737107			
C_0			14.273854908322193			15.566311574218528			72.40811589242088			
C_0			62.86293233548152			67.89332872870446			17.532449065673294			
C_0			95.7839547770027			12.012181665382082			83.3526457347083			
C_0			94.26788573492098			59.176773659390406			73.64225984828624			
C_0			18.092131922697064			87.15107258885327			88.47464264250883			
C_0			62.44704815467327			31.96843385824565			91.89083951128354			
C_0			50.871967502231584			29.506010266638484			43.976083717452774			
C_0			72.90349296831566			20.420253022615363			43.73227209770187			
C_0			14.768517095246814			84.051353629046			57.91543137702697			
C_0			83.6950302071263			29.596660475164338			43.53018208965401			
C_0			97.45275257560938			12.222501612759295			41.802648656171534			
C_0			98.83541012672792			8.911818634454004			33.03465010525647			
C_0			17.74860819855374			30.67960300987763			56.73389751088855			
C_0			1.0281882099761441			65.08901573187929			67.60719715828681			
C_0			66.9222959911139			47.00791444924418			60.5762481456925			
C_0			56.52437226690956			7.957301038741527			84.7874133055365			
C_0			78.83592141435629			56.51369562467834			64.93732957583238			
C_0			26.301196185600205			64.02723231193089			8.913265743924404			
C_0			14.161485628063907			67.46166075361043			25.550244698318703			
C_0			43.28958183568634			79.0264336714888			82.89803883670804			
C_0			66.66982471323551			93.82882770070351			61.096175019336904			
C_0			27.42200897933205			14.780441702390167			86.64096834189417			
C_0			23.763633361575387			50.79851995643354			42.07401876294			
C_0			38.308756806048585			94.1158847089392			87.37875619576127			
C_0			6.147286172288336			93.25214634674272			7.848372486644406			
C_0			71.19554253866859			48.002876043431385			15.414098031319167			
C_0			20.668604918484746			45.5916198679038			20.152313121735197			
C_0			55.90787993774081			62.25927364902025			9.808530038944308			
C_0			15.234312605722621			32.45435662111726			28.058842269412885			
C_0			31.444027466991507			97.2510628960892			24.920446780273608			
C_0			67.33134633241669			98.07384549674939			88.6806676141754			
C_0			35.97516381909419			19.941301501954666			78.71385512900765			
C_0			5.966307700046103			55.605478920378935			81.8641762647783			
C_0			25.46809128641697			24.052744332225227			53.84508878103949			
C_0			74.218398538549			74.23078330619474			71.673270732372			
C_0			72.16566054537854			42.79477454816808			78.12319382514042			
C_0			79.36722626408438			18.819004915507044			21.803991657408204			
C_0			59.52635602080474			33.672754228913035			3.5273410814588346			
C_0			52.17982730038481			6.876565992734918			5.858681057274151			
C_0			26.676526421272907			50.28146567111936			85.09621712504591			
C_0			18.862203867439653			87.00455074159609			66.49993689969679			
C_0			40.498007804696066			85.73622178170214			62.50028443962448			
C_0			49.15258361219708			98.28566741433981			17.851560515762767			
C_0			88.07508083414345			8.053365446781191			96.18455093809644			
C_0			19.16572990278671			0.5425110684250001			54.2757526515404			
C_0			71.27056354849715			54.061251469847605			46.53919135580086			
C_0			77.8787937599478			18.726060076259145			0.5730515958230376			
C_0			52.24225453265535			13.74594072811165			71.03651748337052			
C_0			78.26574143111006			35.08674889113519			37.190042548398516			
C_0			4.051922225882764			70.58807034205371			97.15884737404006			
C_0			25.606868779242532			62.37198744881376			45.223264852671896			
C_0			77.53843549397358			20.21340244587656			10.674465147602152			
C_0			12.770258996033357			56.58727969721603			22.786102343385917			
C_0			59.89094277839033			54.03237953827384			99.02667108863822			
C_0			66.31814694389801			87.5447493937308			89.25635511954096			
C_0			94.62105686674175			5.643677110473611			70.10066307927977			
C_0			71.83631474446616			34.47079331900985			56.428212318856886			
C_0			47.52485611466619			89.53035032253442			81.65304496459727			
C_0			13.989480828728428			86.92448320628587			35.172538202290816			
C_0			49.93615681044511			83.5599302721692			83.38402360631066			
C_0			57.97179552194473			81.81323127450845			77.04763704316792			
C_0			30.680394287713717			39.13592570232905			26.598229370071323			
C_0			27.3160733539448			18.782089580286854			74.6145433732583			
C_0			55.328038040551874			50.725450960791086			82.08286844307331			
C_0			16.259611533642204			59.92385097687449			11.188537985016932			
C_0			68.09903658512657			48.594269074064634			41.85278795525126			
C_0			91.98345694812615			68.17684878735982			71.52233852747032			
C_0			15.083875196363971			22.045909570258925			48.55750211841393			
C_0			13.353772401277553			2.7621545530166824			2.1615722139689875			
C_0			21.888638141847327			27.728845461618278			8.921648249043447			
C_0			38.79104655944937			59.45937032560287			18.708634805172906			
C_0			53.37211586974176			35.99427541273139			38.497810453656335			
C_0			11.936503806216303			75.76127380887166			47.78197943554817			
C_0			90.1528566601088			34.242548666156004			22.26378888914865			
C_0			77.31173871176405			69.34948375948127			76.22563672840072			
C_0			44.44451822684831			82.52284806769356			26.422841436367563			
C_0			14.178615010791473			17.06088366704227			41.91534590747228			
C_0			32.640800736329986			84.27159633192188			71.16895910351118			
C_0			26.725868132610874			70.08284028532672			51.81202555512241			
C_0			90.97517046929384			79.48342801427339			1.5375250750657043			
C_0			56.79956627778402			36.33966731455247			54.200879578549014			
C_0			90.71487978027616			80.9308798108194			48.99692537113328			
C_0			96.50794216198422			77.81608443258149			67.96076671379318			
C_0			74.78294264894663			11.63985013030201			45.065191433009346			
C_0			96.40947636069843			33.94536393975692			30.923673709919473			
C_0			11.569379140485314			23.74331783605833			38.72174519775392			
C_0			19.46273231892861			15.491582996051056			92.86891036544809			
C_0			26.88670512502962			96.22655800934675			6.8630784219607115			
C_0			66.23372572774954			65.52472929552941			26.68910609001428			
C_0			42.262282721637845			83.48118772397224			89.96561728705073			
C_0			50.40259449707732			67.67208944273754			90.01353383456106			
C_0			48.50852950884158			96.86344113657914			71.57221594176488			
C_0			12.416368966384884			93.70651191002464			43.67382519165456			
C_0			54.27757215515538			63.97097032679216			41.42810343470583			
C_0			34.02597384986906			42.32497984057538			91.81656793810916			
C_0			66.7504430114379			91.55114518985476			73.85859267697175			
C_0			77.62031051511562			99.62852586599304			57.705301464357106			
C_0			51.46771745490142			38.54316277680157			68.29752055216348			
C_0			58.780124935118586			37.41653276961474			59.42471018467749			
C_0			69.44980161736625			80.65324305199385			54.11524203107506			
C_0			78.27790636073935			85.3713649971601			12.033920993930103			
C_0			86.7448295140438			72.354223525612			50.76383851413685			
C_0			32.631347525259514			15.254706061418865			53.09780289461806			
C_0			17.630802333036065			49.459968599990155			13.643098055228686			
C_0			56.07393369225916			51.39244696941575			19.4976724916874			
C_0			46.929137618771776			14.938146521672435			76.21020518563802			
C_0			22.056945916448623			7.5577443462706455			50.31085437264172			
C_0			26.410268706742436			75.50650571529665			50.9445877162195			
C_0			5.522365313519573			87.9800507270198			82.89037387995042			
C_0			87.26016104981257			25.065632993219022			0.022974080697057975			
C_0			65.29287897902758			93.10120771387173			20.23822628285875			
C_0			49.108548661098			37.997363705222696			23.974022987095356			
C_0			79.61981383205203			84.76376681772395			95.96138968239195			
C_0			14.29887839492785			75.49075454342822			42.75541098890919			
C_0			8.815942442938995			22.371584780643605			93.40404063580685			
C_0			51.31698165944262			64.29978269726641			68.98361187619165			
C_0			23.547920372028976			31.28731698879349			6.494069005871761			
C_0			51.4298678129197			60.24536332562464			80.9402095866779			
C_0			75.44485143052964			56.222642874410845			53.34342514120918			
C_0			47.38787561926012			66.19408570105227			95.49032337066485			
C_0			79.56196904031255			89.66391733830257			13.618698103309912			
C_0			21.824712217731378			79.31259552099404			19.93901404244921			
C_0			0.9811364105976383			34.250850146078236			35.06507195014537			
C_0			68.7952257638258			84.72375386266555			74.02849988441731			
C_0			23.154522411245104			30.742274532586812			80.60359863419522			
C_0			18.66066790459523			60.72056874964918			39.07342754696814			
C_0			79.72121359904015			13.204936692288683			2.690679320023859			
C_0			78.26306943715858			93.95401534464595			31.759752337602443			
C_0			49.19850022825572			3.756428157460767			81.72559891041853			
C_0			93.87385097761816			90.1240082827379			54.94705905201425			
C_0			69.65328625257746			74.71655663974236			74.49481396679583			
C_0			78.36739865242276			74.11125409981341			39.56293980058978			
C_0			32.16720059725044			76.43558052589754			30.27513996364599			