10
stepId: 99
C_0			1.3928854690852444			2.5579704167283124			1.8134261995908978			
C_0			0.07674718738368061			7.619181170867406			1.5523089044746			
C_0			1.8290484405461118			11.23051017771418			1.7871965190439085			
C_0			7.411558949940902			7.115416620882496			1.1987931556096978			
C_0			5.000958916593283			11.28884886190504			1.6363896385964856			
C_0			2.3195901414732583			-1.6484819518576201			1.4111698253301597			
C_1			5.877811300732548			-0.2121110520844097			1.2660818067228707			
C_1			6.737049113429315			3.0260856550646476			1.3998416571037775			
C_1			9.669939448801905			0.7001921392878281			1.3111488791138062			
C_1			9.483978973326616			4.447268332723034			1.6540771316114882			
10
stepId: 199
C_0			1.833672582390847			2.6147120197787768			1.4618256414714046			
C_0			-0.4960579448963133			5.542078350782592			1.5925049526827355			
C_0			0.47367447228954995			11.021746810187919			1.5476865415138445			
C_0			7.608611618754764			7.881450571508884			1.5839542901365746			
C_0			8.003138001581263			11.1742174878513			1.6211377791551675			
C_0			2.218444868496304			-2.621818648577284			1.5221005616850098			
C_1			5.31281855819287			-1.1032463527043659			1.404007883022643			
C_1			5.88059787270077			3.3462402685705963			1.5042184793561821			
C_1			8.71617874495419			-0.4272602026711806			1.103606022925431			
C_1			8.661791418585373			4.67125826688852			1.3245955873965158			
10
stepId: 299
C_0			1.7857277232169295			2.720155734043737			1.4978679164136282			
C_0			-1.2783348171247453			4.4091482376469635			1.4864665478041306			
C_0			3.1554901474644024			11.44222597339606			1.4245187260822334			
C_0			7.102994705914191			8.574761334444071			1.2332385114977293			
C_0			7.877459971957221			11.140310664156514			1.2175454866897912			
C_0			1.8060509298645209			-4.112940596856565			1.5207303407763393			
C_1			3.805481194985234			0.7430705776350043			1.6710919385914416			
C_1			6.545281306618061			4.465946586905214			1.1509727924480357			
C_1			8.123137770214756			-1.5426525067254624			1.7273481110624456			
C_1			11.23195424147766			5.102206891424199			1.2185094103380303			
10
stepId: 399
C_0			1.7360404338840238			4.337928824135228			1.5130613030028184			
C_0			-0.34004949800840306			2.2791805193999655			1.7146780698299675			
C_0			2.960718779042693			13.894797529718083			1.3113366879328856			
C_0			3.582371185811409			9.624561671460096			1.7788066723915232			
C_0			7.410757807640445			11.760627087390114			1.30566312163172			
C_0			2.1163870860372			-3.946086903231975			1.6003256765267404			
C_1			5.526704584113742			-1.5734038109427049			1.6818928828724622			
C_1			4.820506687201915			1.6555345418541996			1.841269755808631			
C_1			9.863964335782446			0.2229819882600798			1.843196297421033			
C_1			12.118844712992688			3.5909091823187156			1.799589750731807			
10
stepId: 499
C_0			3.5815790170238047			4.6285588146739345			1.3448130296951704			
C_0			1.1676121107911845			2.1121887686429743			1.7518932079475356			
C_0			2.092346801296397			15.751005060280706			1.50899180012022			
C_0			1.9568240400253298			8.392376279047356			1.8300686879052341			
C_0			9.277566994109264			12.845883496204761			1.3941644614857374			
C_0			1.3749576923043245			-3.9264458510343943			1.9344580555327116			
C_1			5.55896955214698			-1.3956765760403567			1.4801572589609533			
C_1			4.36776613922303			1.3178894922449158			1.3778548293058601			
C_1			11.26230026648369			0.38037349531992204			1.6231784741696835			
C_1			12.499319196440018			5.929649730960353			1.496726601544383			
9
stepId: 599
C_0			3.427002551321918			5.9458768158001405			1.5165149621201002			
C_0			1.8981396408435147			1.1776748770739556			1.498246216460989			
C_0			-0.6205875826030364			14.124788202089077			1.534881601067069			
C_0			1.7169602221958886			9.370218001063186			1.9877619203597114			
C_0			7.790771362691816			13.234699768225013			1.4961699626494596			
C_1			5.666026106285292			2.482651969095122			1.6301580193630805			
C_1			13.592820592630598			1.650045495065075			1.775339417663257			
C_1			12.127240049732798			6.305237119735902			1.6266598757562514			
C_2			3.857582908868845			-4.215387117073038			1.294874895424975			
9
stepId: 699
C_0			0.6281137003515161			4.8722283516568545			1.5368327888639424			
C_0			0.5085847278892567			0.514848752309068			1.5678758882215538			
C_0			-1.6840803763237144			13.79067560744898			1.3843839091700763			
C_0			2.020740707421481			9.111129880406962			1.4690076910282375			
C_0			7.393261987392479			11.582292404498856			1.914897093395907			
C_1			5.8299834137595345			1.7042712448300796			1.2088632077899675			
C_1			12.129624218341968			0.09420096670825148			1.480578055685448			
C_1			11.787201640045364			7.372589729495174			1.7865816067565943			
C_2			3.631489065655623			-4.013768004374605			1.8877754901178052			
9
stepId: 799
C_0			3.738683329716528			5.8550561594142225			1.833921125697668			
C_0			0.6649127024860204			1.8733916214364605			1.4496888659741214			
C_0			-2.019694248604754			13.403938667993506			1.41291584757643			
C_0			2.784019264411722			9.491000525997793			1.362984732724023			
C_0			7.9792471335305795			10.774289431462238			1.7900175155812863			
C_1			8.38813924514136			1.9030529226482442			1.6736219963624162			
C_1			12.261287651197572			-0.7375891777416973			1.5831746493394072			
C_1			13.657942322122043			9.94599828511845			1.5501702759328782			
C_2			3.5449420022300444			-3.8052927627244983			1.4456862139897544			
9
stepId: 899
C_0			4.903739463928891			7.030157075399105			1.7998999769451194			
C_0			1.7813275050416413			0.8534402261315668			1.4178494440796363			
C_0			-4.473818926898063			15.048753252607682			1.5113881553335808			
C_0			0.14152467488494913			9.65447673784515			1.342743817652706			
C_0			7.665465703381623			11.51109739368139			1.666068080748745			
C_1			7.650217248177992			3.660108627618486			1.4815121701470007			
C_1			12.585525319253037			1.5930981861239233			1.4083027998271078			
C_1			14.242969280732746			10.079766512808867			1.7682840070124686			
C_2			1.7599100024608891			-4.8373846423708935			1.5816449577282934			
9
stepId: 999
C_0			4.635412108087439			8.696688347763782			1.2728457680342518			
C_0			-0.1446612150723654			0.42356748458586535			1.6431030156591364			
C_0			-3.2199734976257544			14.910348634395419			1.5037460859989735			
C_0			-0.06890486544843188			11.389409588818802			1.369990846612013			
C_0			8.163499853035107			12.4339479958814			1.5424544271373128			
C_1			8.645919790484518			2.370481498985391			1.1158893420586447			
C_1			12.561103492812368			1.8111040454834109			1.6066843499760297			
C_1			13.140425003362216			11.64603997810752			1.705359988806978			
C_2			1.4380433749674422			-4.337818100774842			1.1698301279178251			
9
stepId: 1099
C_0			4.03756295426776			8.809539072761874			1.3651331698169993			
C_0			1.3894186217091398			0.40145558231498624			1.210698177554041			
C_0			-2.243482828229264			14.46376984127907			1.362461714356287			
C_0			0.9548816533237279			12.448563108217687			1.4859868508699416			
C_0			7.179446683669314			10.99729931208735			1.435679337192606			
C_1			8.024885033663777			1.4322852913256343			1.1569888894310434			
C_1			11.183819308685827			2.2884143580008582			1.6401320317711743			
C_1			14.971120319288026			9.94229810323118			1.5406606532176772			
C_2			1.0395223998657848			-3.9499442358596384			1.4814429466172487			
9
stepId: 1199
C_0			3.209742617247633			8.481130650363783			1.2897054252790932			
C_0			-0.22435375205175973			1.0636360026752039			1.5945617685363236			
C_0			-1.9449120334061227			15.837774808354414			1.7288454686633465			
C_0			0.9485761795429364			12.204127980960912			1.7000490371586936			
C_0			10.14947040497597			12.355326250943378			1.5853925859452063			
C_1			9.262993387401156			5.8859760142726865			1.6851857074132588			
C_1			12.488780464467053			5.171313784057164			1.5056119459053978			
C_1			16.754619565659596			11.741227319323995			1.6567774426542392			
C_2			0.615932569997589			-5.242754041451906			1.6875565273902158			
9
stepId: 1299
C_0			3.2829599077880536			6.942580092084133			1.6087157028935026			
C_0			-1.1032210225139456			2.387906891693111			1.2611535102923512			
C_0			-1.2168192299658487			17.624249329443007			1.5048452663798164			
C_0			0.8781549083601738			11.96321680785593			1.7691730413173867			
C_0			11.274789598205833			11.652214653488503			1.5526097987922372			
C_1			7.903711808590801			8.167550493538299			1.0740339722916272			
C_1			11.781746460924017			6.213523750489453			1.4406733823382545			
C_1			17.9228388634975			10.99282396902818			1.5250302863172482			
C_2			2.159631565016631			-4.710649955009421			1.429028391327479			
8
stepId: 1399
C_0			2.286955449539181			4.348311104034933			1.4050115631391726			
C_0			0.05518535073946751			0.7039537466033647			1.2876141810751365			
C_0			-0.1237913106324374			18.739052831003665			1.5320914883114367			
C_0			1.5831191289416389			11.420819349461595			1.3586344046306784			
C_1			11.772580040845517			4.472929420124599			1.4485350021343721			
C_1			18.810245467951273			12.882498843862225			1.552535977358196			
C_2			2.1458289007740623			-4.664370722683163			1.4089829445936974			
C_2			10.450014780281679			9.441301313250342			1.335491056456717			
9
stepId: 1499
C_0			3.4178842514936525			3.7934403543683977			1.666004183328894			
C_0			-0.2610501487052021			0.8886012799749392			1.443780725731629			
C_0			0.15125033806132326			19.305135493892593			1.576261158311936			
C_0			1.4971646656889321			12.71947147642432			1.7923823265144965			
C_1			8.763853281406304			5.3729709382964455			1.462538811169656			
C_1			17.291479764934106			12.709720186792582			1.4741643215730362			
C_2			10.755442106467834			11.196673062096632			1.60982684866697			
C_0			1.222462851156035			-7.403411344541845			1.4422217749239283			
C_1			3.2970050335789938			-4.592383485145218			1.5392622536669576			
9
stepId: 1599
C_0			3.5209281633829943			4.671020970212631			1.2870445159109396			
C_0			2.4971522012380865			0.6043022122780524			1.322464760855176			
C_0			-0.021492855922839116			18.17753337074895			1.6827980202476933			
C_0			1.5232357888276669			11.904342163406563			1.680598212738824			
C_1			9.973791727682531			7.109185936683489			1.2914846544307748			
C_1			17.47098599602219			11.851786263286165			1.5863023785578603			
C_2			11.303183596385471			11.017320989034166			1.4343599228016697			
C_0			3.2903206103740414			-8.34111645494926			1.3880983137799223			
C_1			3.6476854313773015			-4.617043375850727			1.6483771353161858			
9
stepId: 1699
C_0			5.093541888786115			4.423455907893944			1.366104898575425			
C_0			-0.1984751412025792			4.467623791385576			1.6383105629726442			
C_0			-0.6838185661566756			18.48110462851267			1.6585213734377569			
C_0			-0.2975270731725347			9.07622775789191			1.419496141289814			
C_1			13.166526592013836			6.8013896441321995			1.5493759184281783			
C_1			16.75965127622691			13.09728465131629			1.424832189398953			
C_2			10.56947623353908			10.658830643327148			1.6175363359883317			
C_0			3.5262071004883895			-8.02870842259663			1.412083802835322			
C_1			4.745005442032417			-3.187703923573026			1.6664732025500044			
9
stepId: 1799
C_0			5.197111583891887			3.308292649763615			1.7580185001993613			
C_0			-1.5022835297952368			5.032074507846071			1.293012347453549			
C_0			-2.659286073416959			15.98988443476152			1.5841283933191557			
C_0			0.450525756777348			8.847207428989009			1.6267131986107146			
C_1			14.122212477430708			5.6347698393126295			1.6648645297168359			
C_1			18.75106610181563			13.005549884642695			1.5228745860691646			
C_2			10.882496896437292			10.97435038928797			1.571404696184973			
C_0			2.3779540025504686			-8.902133894541661			1.3660688483315733			
C_1			8.009702653737092			-3.9264939688867675			1.5248817169587074			
9
stepId: 1899
C_0			4.864122326912523			4.119455642932953			1.7793461190997757			
C_0			-1.1474838890497723			4.434953712030305			1.613747252822726			
C_0			-3.100521358918725			14.681714213764405			1.3491550263010847			
C_0			-1.7253327912788674			9.883916077605088			1.6486489151080133			
C_1			15.408266807222903			6.473483266935679			1.4263741722751038			
C_1			20.93414790173545			11.719742124253482			1.5144553412777746			
C_2			11.240951767359428			10.266243539172773			1.2077442576642943			
C_0			1.2799614526491099			-11.335188750270003			1.5119059885626136			
C_1			9.944880415216039			-6.089727168824786			1.5518836242454488			
9
stepId: 1999
C_0			8.390931976105975			2.659788287680841			1.7058183238338382			
C_0			-2.832100673731965			2.7738742717916507			1.497627408464006			
C_0			-2.145749494275802			13.888930367498864			1.4640153966624154			
C_0			1.1383422370023215			11.44507918861268			2.02725596361269			
C_1			13.81430451053953			2.314941697934017			1.5804177595309516			
C_1			19.768805663920478			12.523094253665532			1.4975712532721623			
C_2			11.081120514459961			11.388237028434297			1.5360280858509452			
C_0			1.205380195463902			-11.213554142175889			1.3782290032437403			
C_1			8.257065267528064			-5.691154678296167			1.8365327724454346			
9
stepId: 2099
C_0			7.58085659674161			1.359948329735766			1.480753924495933			
C_0			-2.6514660180721354			1.2797375681270788			1.3219215516788327			
C_0			-0.6150759201983291			15.194513627084042			1.6834987398067962			
C_0			0.5133650002428588			9.856342777165572			1.8896634398725967			
C_1			13.723991748400218			-1.1904572662709896			1.5369788493127872			
C_1			18.914135536472603			11.890961720896124			1.5087840732743762			
C_2			10.871688762731564			11.437893241701484			1.6185288653345178			
C_0			2.9814952141418853			-11.828389819957932			1.4940730157876987			
C_1			10.714510518125456			-6.878915070395117			1.6149715191491723			
9
stepId: 2199
C_0			7.657177710829054			1.1317264881445408			1.4370190991410998			
C_0			0.11423269218911919			1.1463727495406082			1.5658163611661335			
C_0			0.8605939579153604			14.953235690549915			1.1226082314939068			
C_0			-1.438232748147763			10.890307037036699			1.7600727280171766			
C_1			15.03658879541191			-2.048996595616941			1.49544323542488			
C_1			18.570068003034727			9.790337420033161			1.5390866962921816			
C_2			11.276040076991265			10.481889571601318			1.5508420675440353			
C_0			1.8892399135370093			-11.465911538606534			1.6438164319084088			
C_1			10.155646287110313			-5.925210733381559			1.1846166212867952			
9
stepId: 2299
C_0			9.049391214552834			0.43016093843313574			1.205203573015535			
C_0			-0.2690585656306912			-2.872126766824516			1.3365922422971326			
C_0			1.3073582022204124			15.22329445021716			1.562350065272429			
C_0			-3.4582104824462627			11.400936389208658			1.4032559756382301			
C_1			17.29165181600035			-2.9824890843758727			1.3603296022983775			
C_1			19.146178049981312			9.622356394989877			1.4304744930837323			
C_2			11.927256210683462			9.942556687581785			1.4669994453075275			
C_0			2.474295417472946			-9.616768245551675			1.499304448806271			
C_1			11.71983401534627			-8.061580604705144			1.66876817671088			
9
stepId: 2399
C_0			10.49269686638057			-0.41642864169035676			1.7663969962544113			
C_0			-4.355984903193808			-1.8805396948335908			1.7767100705737722			
C_0			0.8312524458669759			14.159239320579523			1.4155346987173447			
C_0			-1.6868389413960805			11.600589216701684			1.4175755319948862			
C_1			16.980320421803665			-3.26713169569391			1.5421672646394609			
C_1			17.724586943723516			10.10169401003484			1.2772322141185106			
C_2			12.980287220428929			9.560771646106398			1.3975159494919522			
C_0			2.2970210913846394			-10.243031257355032			1.3916117649152664			
C_1			12.470350299860385			-7.109716189828996			1.6739118946160587			
9
stepId: 2499
C_0			11.333305144055682			-2.8521528584187497			1.4294521039518084			
C_0			-4.617332687402029			-1.2493788596075175			1.3312027402802853			
C_0			2.3329141978884325			15.08732796666979			1.562863763600966			
C_0			-1.5087749761082083			12.034032013953784			1.298670570743197			
C_1			18.161984524056997			-4.460657962408386			1.658346171373688			
C_1			20.83772813026123			8.264626881387343			1.4749434606741172			
C_2			14.972441721611402			9.446773022107378			1.4963920503031551			
C_0			2.2489492110421034			-9.697094574605224			1.4948401532248956			
C_1			12.054631351467414			-6.917626290895586			1.4366465324947228			
9
stepId: 2599
C_0			10.489176207187377			0.08398038932315599			1.450107191484107			
C_0			-3.5071060258873397			1.0288681128523876			1.167538947026077			
C_0			2.0112346528668485			11.837595667698162			1.605057647812402			
C_0			-1.8976132268390709			10.945193100215208			1.4282414484325652			
C_1			17.245069850718146			-4.973599578246925			1.2137361697502467			
C_1			20.004862604330754			8.490116447562524			1.5061686132605894			
C_2			15.591376810166873			10.263638300472197			1.3534024173649828			
C_0			3.3659526965942717			-10.910753973421256			1.5619266176016429			
C_1			11.523363941382197			-8.158026200758767			1.3242542901113876			
9
stepId: 2699
C_0			10.075393028630751			-2.1481705161599214			1.18755569834097			
C_0			-4.421693316401196			-1.417766904659162			1.4941965154535706			
C_0			0.0395142147580774			10.880878683438892			1.6591144280572185			
C_0			-3.9426740534684055			10.16326179088706			1.578631253106618			
C_1			17.83012511523662			-1.6756034772556951			1.7110475454650964			
C_1			19.734537216486544			9.145764299779776			1.6076666802245743			
C_2			15.392585897848091			10.300317376321518			1.421566402323368			
C_0			3.1641377494898606			-10.461521172434466			1.4307437310274733			
C_1			9.39382333120813			-7.846716697709953			1.2985795560159061			
9
stepId: 2799
C_0			8.174385858086193			-1.772908163186926			1.3732571712236612			
C_0			-4.1149818086953305			-2.0768995033834665			1.5512376458131294			
C_0			1.6558620830959727			10.917740106940139			1.3625477592685091			
C_0			-6.277755299172538			9.861118648533907			1.804270998912299			
C_1			18.3287858487041			-1.3375864401001962			1.7163566034843882			
C_1			19.04150937187921			7.717576724828861			1.3859707188424086			
C_2			15.302681522522557			10.814681559646097			1.6039706392346225			
C_0			1.0177134273283743			-9.661913397304179			1.6254875416229413			
C_1			7.938437203555366			-7.548082018979269			1.353799035110681			
9
stepId: 2899
C_0			7.5566700994607885			-3.022496002921804			1.5565005649679915			
C_0			-5.166655469139612			-2.8702418942987054			1.6330768063114023			
C_0			3.195969339849737			10.871133804891933			1.4603431953730521			
C_0			-6.329588633222401			9.704819758708481			1.6772076332794483			
C_1			16.56936793189433			-1.602209283125154			1.483753228572422			
C_1			19.12242371339778			8.301027236879147			1.5502309706507427			
C_2			15.892710421143894			11.824435295862884			1.5413750535830273			
C_0			2.7731643521048697			-9.041411637372654			1.4852088205122551			
C_1			9.455730622684582			-7.002836946983407			1.4316181545720774			
9
stepId: 2999
C_0			7.2167002946109156			-3.2285321987634736			1.3868932326920596			
C_0			-4.681318729137405			-2.9957211567869555			1.6817504809850612			
C_0			3.1179260470788455			10.862941971478595			1.760134647981801			
C_0			-4.42132432647695			11.536470160207731			1.4897376940551164			
C_1			16.88639592989906			-4.38227358763611			1.3790916665564654			
C_1			16.38355541524233			4.327313205796147			1.8812744920522673			
C_2			15.420787897621182			12.191320602682547			1.581523933645727			
C_0			6.225642833100335			-8.817587979627636			1.4129161143848255			
C_1			9.78208408115514			-7.076513501248153			1.8994611638824832			
9
stepId: 3099
C_0			7.360198626427602			-2.497544599781368			1.205736079399758			
C_0			-5.2271532385823605			-1.1135200401903351			1.3628042247540229			
C_0			1.9600890790147925			8.32906866572636			1.4973662389520495			
C_0			-4.140773784025845			11.481589812320749			1.464413827164312			
C_1			15.199015199248064			-5.712066965086413			1.2479974326083758			
C_1			16.483889093142803			4.990228886622017			1.6992914730886073			
C_2			15.994856780278031			12.832205793657058			1.8489323455471258			
C_0			5.272929924653008			-6.999790325443085			1.7711458214976665			
C_1			9.610626963224265			-5.16150813088658			1.3367196057944475			
9
stepId: 3199
C_0			9.787299949749462			-0.49015658640604653			1.3261783008598884			
C_0			-5.891585966627095			-2.9340910549761072			1.4698260724185654			
C_0			2.729069721472052			7.675098506669254			1.6102653319126639			
C_0			-4.040437416883506			12.903568431060602			1.3950778687369223			
C_1			16.027286213780634			-7.6265874446265105			1.5789157121406514			
C_1			15.549239340705988			3.1486149075634837			1.7371213707902413			
C_2			15.045851341431792			12.926147063737965			1.3590863954773822			
C_0			3.4452721793784225			-7.078758999901323			1.3934260294649936			
C_1			8.547488044435127			-4.497356096524647			1.5360119161313925			
9
stepId: 3299
C_0			9.7492697162425			3.8893675797790586			1.5932467221726307			
C_0			-4.235308949406488			-3.1524952473441563			1.6260639725705657			
C_0			2.0136730224748725			6.493284259483909			1.5862180352855388			
C_0			-2.85928193839124			13.556866135421267			1.5632398345156786			
C_1			14.329837855875455			-7.8383196373089445			1.5142109545744948			
C_1			15.060125797546991			5.049513872809146			1.5754397709462873			
C_2			15.264068759723651			12.781373805911578			1.5059048636555787			
C_0			4.429608526003575			-7.761101991266336			1.4638451025205474			
C_1			8.537866375726894			-4.129282849105103			1.6337826205749102			
9
stepId: 3399
C_0			9.285934288392315			2.7572907977480323			1.4934600824117248			
C_0			-5.9693151129167035			-3.2573310238720854			1.9368586311383729			
C_0			0.7180294854719961			8.390778128762538			1.7610998631344104			
C_0			-1.6367232521893451			17.18339824008714			1.416944694614957			
C_1			13.985792934981554			-6.6134912668047345			1.1705903912832234			
C_1			15.518471872343945			4.756915565625026			1.8316595350711635			
C_2			15.312766649968577			12.957056726471107			1.5991731894157029			
C_0			6.356332186568523			-7.60412728600082			1.5535188883668127			
C_1			8.959132302490497			-5.635028481395143			1.4875098941187095			
9
stepId: 3499
C_0			10.871311201288101			5.135625779791461			1.4362914973424517			
C_0			-4.695383770018351			-1.6710362132758578			1.6536769767943154			
C_0			-1.7229470845089876			10.143052204160481			1.6206495164779477			
C_0			-3.038254682201277			19.959535864380594			1.3500748120342594			
C_1			15.604826306083643			-7.720924246776213			1.5294219012258372			
C_1			16.675381689886393			4.5315163465162405			1.5311715789556792			
C_2			14.84402416192699			13.51282404108038			1.021088239503529			
C_0			8.444902474705492			-9.360377531364845			1.5203486114927585			
C_1			6.508005101135957			-3.8217761818968223			1.7596752586433617			
9
stepId: 3599
C_0			11.453405549157276			5.966645564156364			1.3772738634680681			
C_0			-3.6873095563227913			-0.616345425698077			1.7359560160685055			
C_0			-2.693171295288741			11.581152048370276			1.6254089478867872			
C_0			-2.195440529212149			22.756705211660787			1.3835000201038286			
C_1			16.144838595766352			-10.664358220218627			1.8689633520512114			
C_1			16.418151430765064			4.377512841054316			1.342593278632771			
C_2			14.087447820159674			13.022139217972994			1.3199355976542928			
C_0			9.257482391042462			-9.369485831161173			1.2291810381452777			
C_1			7.6701546139277115			-2.8118802277280173			1.4503118078942332			
9
stepId: 3699
C_0			11.202198125372277			6.264227219017166			1.4484023185292116			
C_0			-6.285827877963938			-1.1953443821981953			1.7456913189367713			
C_0			-2.988571256755274			14.270453468976445			1.6446365919591968			
C_0			-1.855237138312158			22.637278859039487			1.4750738514101658			
C_1			16.19533493646351			-10.611044968909676			1.1226448479440583			
C_1			15.606031014789895			4.777766970772172			1.4712819509753248			
C_2			15.04846460604037			13.4291087859164			1.299475556395257			
C_0			6.715158435796255			-9.304751957218318			1.459995865612119			
C_1			9.169141803246113			-4.389376019932604			1.512705422976917			
9
stepId: 3799
C_0			10.126147043124538			7.207800013759537			1.2997555761056305			
C_0			-6.8573003326575614			-1.1054416827463447			1.2669519429162093			
C_0			-3.0252445832252977			14.909867207992269			1.5152600042708853			
C_0			-2.9314977444900596			25.62457437906133			1.3695053757102826			
C_1			16.117442805306112			-11.371298781418224			1.5302363535605483			
C_1			13.873127201543285			8.116683248414649			1.5148133720049006			
C_2			15.041327535644394			13.154543019559346			1.3224248143649573			
C_0			7.056813934237422			-10.343148755065831			1.2961906276044346			
C_1			9.301514400215789			-2.6284331988341147			1.6611728881424341			
9
stepId: 3899
C_0			11.646177548479518			8.9740956956561			1.8918523888421752			
C_0			-6.870552746437589			-1.675616386855319			1.5326390578500835			
C_0			-4.15278201639109			16.31765590693486			1.4115787015842916			
C_0			-2.3898598697407736			24.278060896569034			1.7444341725773302			
C_1			16.349161757529664			-13.231602381176197			1.4303367073381266			
C_1			17.04882170046133			6.57327691070066			1.451744840541581			
C_2			14.625060309922976			12.942341229433538			1.5458432596144385			
C_0			7.244401625210212			-10.5613562434116			1.7256304775730764			
C_1			9.044103003420705			-4.1138939412071185			1.7832161931605874			
9
stepId: 3999
C_0			12.725001134782664			9.7139423077221			1.7616943131201204			
C_0			-9.107149377763376			-3.7474495354767527			1.4772229467236009			
C_0			-3.7417455599682916			15.945131904825942			1.3654582532046042			
C_0			-3.9911213694158585			23.468622314143705			1.4940501562773032			
C_1			15.855885200935003			-15.429669738369947			1.5367802100977292			
C_1			16.61863421252918			6.848540003466345			1.7252742377864878			
C_2			15.841783846825493			13.517982030878958			1.371881560746326			
C_0			8.284335480692853			-11.653838956131924			1.3535862468753903			
C_1			7.957053340755054			-4.612054730966435			1.4843815646414256			
9
stepId: 4099
C_0			12.353008241211262			9.179162060228073			1.5756212164492547			
C_0			-8.076319486264213			-2.7140829384527536			1.347089346778825			
C_0			-5.002263231092284			16.807760798499388			1.4425627852602636			
C_0			-3.0755484512954356			22.85353642672753			1.4580099128359212			
C_1			14.636938855582637			-16.58321301823225			1.5518329062898293			
C_1			17.200430546383064			6.527994104005918			1.6841412500443944			
C_2			16.393419191635715			13.720996373917991			1.5116784809923436			
C_0			8.330639793587006			-11.964744895404266			1.348959162135046			
C_1			7.16462518689696			-5.129826286340425			1.5479920127672209			
9
stepId: 4199
C_0			14.987416625889923			9.113181475925385			1.5785852975190418			
C_0			-8.822819997094578			-3.970071010140737			1.5772052483817827			
C_0			-3.287411578114596			16.37704318031092			1.1893784293271052			
C_0			-0.48386598845592055			20.09266918381874			1.4721932299065643			
C_1			15.018622315451188			-15.621585411735836			1.1760273594875184			
C_1			18.659979844228303			5.177276433612494			1.1543820764824329			
C_2			16.43106880872824			12.847398430050024			1.3941911391405513			
C_0			7.846644225060537			-12.662183864459779			1.2834984615161547			
C_1			6.105913696928121			-6.810926688543939			1.4201304668965864			
9
stepId: 4299
C_0			13.15428452001427			9.218000517840181			1.407101531476259			
C_0			-9.488828451929276			-2.233267674425547			1.7970763660036577			
C_0			-2.647949737556812			16.019386312467518			1.2565975293845986			
C_0			0.17135080500911606			19.92928902473753			1.6666415906447272			
C_1			15.732080991760263			-14.771514152029969			1.63092723289146			
C_1			16.627688770389987			4.727322956483391			1.4861565645835229			
C_2			17.113558035381367			13.147564176757559			1.3633475840720346			
C_0			8.246999905024921			-10.252324921653281			1.4161711408453708			
C_1			6.131065977316749			-6.100137792213083			1.4919476485267427			
9
stepId: 4399
C_0			13.153948371909372			9.733713408267809			1.4693862897277972			
C_0			-9.298566885211649			-1.1413111002392167			1.3925558971302272			
C_0			-1.8429582922241379			16.52953978489368			1.5128836643780246			
C_0			-1.7344446891511698			19.67562548397713			1.4225355139779474			
C_1			13.468804577187848			-14.564726570292075			1.8715423752857656			
C_1			18.94022348213857			6.5678642288713975			1.495046948400167			
C_2			17.282770177680757			12.573610817813357			1.5425552778999934			
C_0			8.96452672873833			-10.42537023310034			1.3817430358734357			
C_1			4.734978393224688			-5.498713516115712			1.4724217808222955			
9
stepId: 4499
C_0			14.8738754704294			8.375706861407371			1.694516488320738			
C_0			-7.489533723699806			-0.4565980006977387			1.4053477892188544			
C_0			-2.6764715076683188			17.42676131154844			1.7442717891709698			
C_0			-0.9313232211858928			23.57071871976452			1.2072637513296012			
C_1			13.636259402764859			-12.15702484443732			1.5454161287412331			
C_1			19.914083264297947			5.97195820742501			1.265132644338912			
C_2			17.894904746804414			12.473638686916743			1.3438406433062569			
C_0			8.687374912780015			-11.512882932470353			1.5648309211536595			
C_1			3.9509933326763194			-8.75882115845693			1.6578088025853133			
9
stepId: 4599
C_0			16.51638072495987			8.630787073353822			1.9046267757596145			
C_0			-9.575765259530215			-1.3667030094391481			1.1367116722862556			
C_0			-2.48994936596101			14.531588894402944			1.5545639183187343			
C_0			-1.4986293579880556			24.58803990726085			1.6001387820440254			
C_1			14.951594458885022			-10.484420817000213			1.4988368713611404			
C_1			20.50688054609255			6.593577813708383			1.3243422059882832			
C_2			17.86241909655619			13.1968966009208			1.496180541172188			
C_0			8.06473222845228			-10.232209385175576			1.7104302058259677			
C_1			4.786125307422272			-8.299692616418703			1.6577535354983086			
9
stepId: 4699
C_0			18.237881975148493			7.742877462800826			1.6181619002839114			
C_0			-10.184640194422933			-1.1374718138119635			1.832496266610483			
C_0			-3.452693405025932			14.280337368321955			1.6271227528716103			
C_0			-1.248981291053474			22.996329631720794			1.5069990698735607			