10
stepId: 99
C_0			0.7507417169075272			5.498571546781322			1.462431557340273			
C_0			-2.8778987470151622			6.237702693971836			1.5710811565694651			
C_0			1.8230696920914065			9.478198466814295			1.5346686629807464			
C_0			4.178429062084309			7.40610598181305			1.7022464638866084			
C_0			5.25697568339012			10.602362468818118			1.1710219670235407			
C_0			3.202307279514351			-2.0063090698095944			1.5278193927890358			
C_1			6.510398631423364			-1.7188207646248486			1.449996613504326			
C_1			9.510768307079832			1.5220573631387504			1.6383578696481136			
C_1			5.797295790575616			1.799117947480091			1.4403160403433821			
C_1			9.957019621789343			4.816533872798419			1.456638208251242			
10
stepId: 199
C_0			2.4053032906647696			4.794744277279572			1.3582065240214718			
C_0			-1.5871685379743259			5.539634984113732			1.635916925654208			
C_0			2.013512861754491			12.180019148338236			1.3308847495177885			
C_0			5.595880165728932			6.906862701350595			1.3731752342424408			
C_0			6.247194795689108			10.894978150799885			1.48993867495203			
C_0			3.806565219331616			-5.495213681451841			1.123639345708039			
C_1			5.530693187645111			-1.3812001923550847			1.5731680391280896			
C_1			11.497533425493662			2.4972386133748574			1.5178182220525966			
C_1			5.77497507114666			2.710342846301616			1.5222473150951341			
C_1			8.979082337454296			4.596065005727907			1.2984585296649749			
9
stepId: 299
C_0			-1.5212089567549865			7.145973934643079			1.2437782493102634			
C_0			1.4471032208603145			10.931612596438896			1.543626223759003			
C_0			5.581332179545856			6.695765139543265			1.7264058292655193			
C_0			6.240581200924614			9.836105654634293			1.5081649036878364			
C_0			6.450641741791108			-4.536047081777556			1.573505553674583			
C_1			3.448471257248977			0.2587248692729725			1.7138320478673552			
C_1			12.42623115275259			0.4304306748504606			1.7331958017297284			
C_1			7.192788214760506			3.954109801426345			1.6864593237320147			
C_2			3.204270997899603			5.002912471724295			1.6676282495643429			
8
stepId: 399
C_0			-2.8713204796699783			7.756647485976824			1.3861016052461927			
C_0			1.8464794493919146			14.040214045187248			1.554917895129272			
C_0			4.414056602498911			10.755683557378239			1.5528387752137687			
C_0			7.499692963239368			-3.401123317881577			1.5603703652256877			
C_1			3.0476601126585914			1.0578643761069437			1.5403281598124239			
C_1			12.294297086703903			-0.19083872152596407			1.7057998859619607			
C_2			2.548169373609914			5.080841962500179			1.5704359810548534			
C_2			7.879999931728731			5.784681377719185			1.3362370508792303			
8
stepId: 499
C_0			-2.9221420384393038			9.650961399470765			1.5639296523145687			
C_0			4.015131238639118			16.379710224847315			1.242330775736314			
C_0			6.189907477149543			9.60653284498478			1.6329555925483865			
C_0			8.552452255384035			-4.130341656584316			1.7439780294409726			
C_1			4.253544555244212			1.3428658369833626			1.3876743982886017			
C_1			14.559704915989569			0.27949385747325134			1.3908737287845168			
C_2			2.641591827020994			5.154501599382748			1.7015966555920745			
C_2			9.387150721266819			5.479553902653672			1.4353535643958666			
8
stepId: 599
C_0			-0.7870173044676734			8.735969975071065			1.526286947807438			
C_0			5.096898610140677			16.227284588253294			1.317899253649017			
C_0			6.7505347279936325			9.210205335446558			1.5451487334207694			
C_0			8.131057900609894			-5.298999255995022			1.4033687755499233			
C_1			5.9422285931577905			1.0496726464219943			1.5511571682456673			
C_1			14.875379171059642			0.05491979693878573			1.451553724586729			
C_2			2.5953354966444984			5.3781323360548			1.3258121986247395			
C_2			9.202145652128033			5.500898343366126			1.3496364611933267			
8
stepId: 699
C_0			-1.7425008008087994			9.032322909358648			1.5917211030172287			
C_0			3.9179209348133854			18.31518981952523			1.3449835031238178			
C_0			9.7324901622566			11.863794848062646			1.5560043834528958			
C_0			9.715609667837679			-4.792282666485421			1.2470959863242077			
C_1			4.997418520430681			-0.7556194181045587			1.3650036111944075			
C_1			15.38024722654951			2.525459174957123			1.7860816351748634			
C_2			2.89685659136871			5.2739906748367495			1.6329969390148587			
C_2			9.91441971244719			4.456875062942342			1.801792295430901			
8
stepId: 799
C_0			-2.148055738369687			9.127387011541742			1.4846563232374503			
C_0			1.3175778592998242			19.079039652703084			1.4024139254309254			
C_0			8.314553069780365			10.790697339775864			1.4028716673561001			
C_0			11.01472697033426			-3.0750569467732567			1.5760515252531586			
C_1			4.429081531159688			-0.5991581833755988			1.242223512305452			
C_1			14.542945580552168			0.40248651306914135			1.434848826619755			
C_2			3.902561747362785			4.685150266247459			1.7114753746240798			
C_2			10.756405342712878			4.09472206556188			1.348434808944755			
8
stepId: 899
C_0			-2.3474846925135937			6.946323564301845			1.6558868981523829			
C_0			0.5907738271665994			18.107784510767473			1.7113118732755679			
C_0			6.038240459160261			8.285785399826485			1.7329990985012331			
C_0			12.778947401803478			-1.7433775796154			1.4785873953203004			
C_1			2.876968953821514			-2.2165853217061566			1.2789662823837182			
C_1			15.630652204892588			-1.4326783064204145			1.3869407830224256			
C_2			3.663189946936461			4.843038805094603			1.4690539834991005			
C_2			11.195563415070577			4.5608204608385225			1.5631893599474453			
8
stepId: 999
C_0			-1.330856594199792			6.3180429078222735			1.5762083867054608			
C_0			1.7249337292715001			17.112664168739613			1.8093827020706474			
C_0			7.308583107599483			8.50825127634453			1.4065786715900193			
C_0			12.38663694154653			-2.9244155774829816			1.23936596659905			
C_1			1.9872415359717546			-0.4328760680819062			1.376102326904419			
C_1			18.028722885782177			-3.9232464663049575			1.5449005762873635			
C_2			4.241357074817336			4.520174957245475			1.1680932580308918			
C_2			10.898033548200072			4.012230443271806			1.3182254959426285			
8
stepId: 1099
C_0			-1.466080436708727			6.61528110598744			1.5944568208368175			
C_0			0.17291781286762725			17.34188154147818			1.7191956738030933			
C_0			9.492783430058138			9.595275280712084			1.5869877500440146			
C_0			11.849901038394371			-4.7861943206546735			1.548416528079217			
C_1			4.416590432183426			-0.7379612729998404			1.0909078643888808			
C_1			17.375004039363624			-3.7799443466443448			1.7521307338422045			
C_2			4.307309104820875			5.145402379393061			1.451902554245944			
C_2			9.892786523901949			4.80056925511248			1.2723073282612716			
8
stepId: 1199
C_0			-0.4641471941737427			8.61795358642724			1.689601896026468			
C_0			-0.5484051640955313			19.060268752206586			1.410382887332895			
C_0			10.295614520054473			8.115451206811342			1.4753114202487798			
C_0			15.134902967619778			-2.1819734081291235			1.3489119659930215			
C_1			5.033976124813644			-3.0575994528829633			1.5281410828631272			
C_1			17.5701731182031			-4.303984868709289			1.4397614401630048			
C_2			4.080613826153005			5.419812707558649			1.638449762522506			
C_2			10.081917097915255			4.2901936879112474			1.4650583393123984			
8
stepId: 1299
C_0			-2.419377216694492			8.60147812277637			1.035587939756748			
C_0			-0.0206970995527605			17.98513798494418			1.4135813874129277			
C_0			11.040741215229191			10.302105065505053			1.5464545958709115			
C_0			15.722744207329004			-2.281944569174865			1.3686230304083025			
C_1			6.048637366028009			-5.05415299182867			1.3773424064478295			
C_1			16.65374168306152			-5.837001694934782			1.4886197869216484			
C_2			4.257054008877489			4.953785761398331			1.369819827102853			
C_2			10.919833080259764			4.9306716399732835			1.29794425464131			
8
stepId: 1399
C_0			-1.2486454770729927			9.199675644006946			1.6989393970772948			
C_0			-1.0741993490098218			17.626981569085324			1.5994169351712015			
C_0			7.775288602135861			11.450357450691111			1.5313241602671062			
C_0			14.959191665177293			-1.492503205883252			1.7366502179800305			
C_1			7.854730239053423			-6.3456285251561475			1.7546669176753549			
C_1			16.854789616071113			-7.523450776662149			1.3898497410224306			
C_2			3.2196884374526413			4.777721013152879			1.4407141188812542			
C_2			10.401297744440804			5.101291946750721			1.5933564528866122			
8
stepId: 1499
C_0			-0.8930583518645198			11.817111900166728			1.4914873415763155			
C_0			-1.1920194729972908			17.92427238332235			1.3614673464845177			
C_0			10.086944050825167			10.786113255819997			1.2769652489265901			
C_0			15.997048293656094			-2.003665221353627			2.0648651094178927			
C_1			5.73686223634165			-4.784253707299463			1.6825150077479436			
C_1			16.147128988342644			-7.272653724068238			1.145506168026884			
C_2			2.96738565827004			4.87125586828892			1.8336143012024853			
C_2			11.095561421918992			4.773745950335187			1.3376691222164887			
8
stepId: 1599
C_0			-2.3846875077472167			12.499073093765384			1.436519175890365			
C_0			-0.8026852961332511			18.249488732187636			1.392205502307358			
C_0			8.921894907879807			7.990772925423648			1.8347003894855136			
C_0			16.91756939085964			-0.17972243792215184			1.4208617429654842			
C_1			6.218147055859643			-5.457359253505331			1.1690701050497558			
C_1			15.044386551844806			-7.067261806985612			1.305193824450805			
C_2			2.1175171935040535			4.350877339368637			1.278661841018941			
C_2			11.367785083674981			3.616193714276768			1.5234913708756852			
8
stepId: 1699
C_0			-1.5450756224457185			13.541441768890989			1.4900340964884395			
C_0			0.9347592371068824			19.886949505004438			1.4758568681444428			
C_0			8.931440055260259			9.223913614114565			1.4418833892994303			
C_0			16.941589851751687			-1.8732655524813948			1.3505518889396877			
C_1			6.495197900414216			-4.213615544859685			1.3493167793387335			
C_1			16.432696359439756			-9.219399524504237			1.6548977473064084			
C_2			1.2840779561453375			4.642393624454042			1.6011375963395578			
C_2			10.82364915152612			3.5396403359094912			1.1786726288869338			
8
stepId: 1799
C_0			-0.8461001499011476			12.70346305005707			1.2206842345511313			
C_0			2.512057249805326			18.27579249224848			1.4472036882782302			
C_0			11.736015685563135			9.806956010732813			1.254949276841767			
C_0			15.792179326990524			-2.106189582646232			1.3947295148886005			
C_1			6.228309679563889			-3.8638032920072414			1.484259641112691			
C_1			14.995445542568936			-6.2721032965436			1.9414855255420402			
C_2			2.4132767334515575			3.9143804358714087			1.5635105424683076			
C_2			11.228086868642523			3.62411700223666			1.741881400228408			
8
stepId: 1899
C_0			-0.5359341402294916			13.466662434716197			1.5015471113247267			
C_0			2.5012746325375126			16.805606812234284			1.4069328828884078			
C_0			11.24274955199719			10.834187685759865			1.4075733245861732			
C_0			17.84845795533836			-3.146763198107047			1.5957306647812979			
C_1			6.959213805394733			-6.217369481356216			1.1063011803223322			
C_1			14.053555382392801			-6.483849774145233			1.510042485030564			
C_2			2.878091166474679			2.557946149818881			1.52446754487774			
C_2			11.357291938009611			4.355823040129245			1.2189858757506522			
8
stepId: 1999
C_0			0.6512031810800698			12.140168886456815			1.3355472311340195			
C_0			1.0538918388985137			16.548179020065515			1.4381502035182454			
C_0			8.899483017893166			12.252319875458287			1.3980077519626475			
C_0			19.97302595671946			-4.0267753056581785			1.5349150814189416			
C_1			9.106879051519714			-5.473658776081144			1.631736844911974			
C_1			13.848374654046491			-8.240245505013261			1.74562683347956			
C_2			3.141452980806187			2.470771098266419			1.430151591413759			
C_2			10.237621184817565			4.071197146492606			1.2791443348416462			
8
stepId: 2099
C_0			0.33661583926010336			11.142024199082206			1.528059790238301			
C_0			1.1127335124659774			16.373181512636247			1.4049944760212687			
C_0			7.91780641835256			12.034448952407802			1.6430814621887242			
C_0			20.06098028850029			-2.8910020060957735			1.488832377163425			
C_1			10.65515419067938			-3.9714635358842427			1.4416068797723554			
C_1			14.667057112223926			-9.95768838096811			1.5517868752789714			
C_2			2.6299638440910025			1.8654477194358132			1.498949321685376			
C_2			11.514016805215357			4.619084203074071			1.315012899951914			
8
stepId: 2199
C_0			0.8289858082139996			11.496675408992168			1.6814893219942961			
C_0			1.6083384329613417			18.303166892944052			1.8158582484301937			
C_0			8.007896715932525			13.821619491129745			1.3800903598534102			
C_0			19.263475315729472			-4.780172498116863			1.6952279679426943			
C_1			10.394053645301			-3.8069044184118193			1.8237580306256231			
C_1			14.884139984040042			-8.757164293344957			1.5037913492198223			
C_2			2.2954588558563005			2.0255046453683523			1.7617296483934182			
C_2			11.317159432941363			4.832548855875239			1.524792151821709			
8
stepId: 2299
C_0			-0.6639175320581285			12.875636747797984			1.5851895443929709			
C_0			0.5826347271894269			18.823039217975317			1.2747232730347147			
C_0			7.557148169595858			12.53201995143362			1.7695242238597046			
C_0			18.215532985332036			-4.249149268651547			1.1255435069334399			
C_1			9.25543057825959			-2.997557619156451			1.5662856766517823			
C_1			15.312085363078678			-8.485341874470828			1.643225616622035			
C_2			1.9977960149424319			2.525723081828546			1.3726184866727424			
C_2			10.661769196030754			4.940066585492892			1.1715067677902662			
8
stepId: 2399
C_0			-0.11827775759056708			12.230612951805464			1.5778582972194297			
C_0			1.2215987030097388			19.187315387199604			1.3033626744040023			
C_0			5.902975204314323			11.564248724773392			1.8772771649619941			
C_0			17.505972668298796			-3.80675610227529			1.5089452327850696			
C_1			11.602341504190868			-3.6343194240312666			1.7305236054809487			
C_1			17.00866825169052			-9.298169285833385			1.5175745932552147			
C_2			1.476031277382633			1.6489153891602324			1.3508081007093502			
C_2			9.734228838504672			4.515253057774419			1.2695787472958204			
8
stepId: 2499
C_0			-1.261299429661985			12.8598504487422			1.8153459650838781			
C_0			2.236245638112289			19.126450618471317			1.516107445093251			
C_0			6.3948880199615195			11.169233953163168			1.2170712275660671			
C_0			18.16945414477121			-5.767275799590277			1.6024406494959975			
C_1			11.279238269431932			-4.212835276121229			1.292468008599358			
C_1			18.45629353971814			-8.933740363833866			1.529623238533771			
C_2			2.4333044060601083			1.4774169346395676			1.1362380205266223			
C_2			9.16540947383784			4.247187340876983			1.4115335433135165			
8
stepId: 2599
C_0			-1.7001749950309017			11.789584930645459			1.584756317025422			
C_0			2.378886566174876			18.22699931455791			1.456224736804266			
C_0			7.854579225196491			12.940421816138			1.850965811633742			
C_0			18.980755699307693			-3.876658572474649			1.6044796946575772			
C_1			10.203640853214626			-3.6762324113157225			1.4996556903876044			
C_1			20.99482933386776			-10.727808192788272			1.8267958725409312			
C_2			1.896114830539177			1.1566962874890863			1.1950406929673094			
C_2			8.596139334765441			2.0523803369531346			1.2717424388789198			
8
stepId: 2699
C_0			-1.5747310750770256			10.051713890386905			1.4634899511733683			
C_0			1.4830083204305193			16.486285153016016			1.7065686716436503			
C_0			8.355144161424175			11.974686704291408			1.7792169736099714			
C_0			17.36319996675049			-4.154223857150317			1.233047130245287			
C_1			11.042203240755455			-3.3026426987408963			1.6397273969868982			
C_1			23.442443712338985			-9.6103928144831			1.679483396443913			
C_2			1.6573388137273017			1.1397326327266109			1.536930017379296			
C_2			8.913492880623254			1.4683436998558832			1.6447130463308142			
8
stepId: 2799
C_0			-2.1889425786888554			7.9588677396933045			1.2320873843702005			
C_0			1.9705326107078123			17.57414666425269			1.5066013280534878			
C_0			9.168185202759524			11.810749586230026			1.6436620743541623			
C_0			18.367371459360328			-3.8652817688285257			1.5432488027806874			
C_1			11.071976564938227			-3.609853925985679			1.7148613097788927			
C_1			24.535484905500454			-10.034480956283186			1.6801069618609297			
C_2			1.502228657782224			2.2446774595293952			1.5995694400556406			
C_2			8.737765358255858			0.9206325378554915			1.4233641317582393			
8
stepId: 2899
C_0			-1.4457324142474959			7.468675242380193			1.5339471534685523			
C_0			2.723474712173338			17.404011873898927			1.3646930224491973			
C_0			9.151286236271167			9.001313865795803			1.2494887160191526			
C_0			20.4116433168783			-4.2770509526116225			1.5166430459619984			
C_1			10.334652453129129			-3.84749128419535			1.6854922636616874			
C_1			26.348470775287108			-9.031438908890923			1.6347282607095937			
C_2			2.059177369875165			1.626639365124088			1.5400675747280266			
C_2			9.160910672517263			0.26744670089411765			1.518080016677164			
8
stepId: 2999
C_0			0.7453359286985546			6.659246985273355			1.4536480237415241			
C_0			3.0836204841557917			15.9741435981742			1.605579125177387			
C_0			8.788973153049852			6.952735824739133			1.528233328898083			
C_0			20.46089729549809			-1.9312213026969134			1.7938500061465459			
C_1			7.281705820675953			-5.413999812026417			1.4110156149438975			
C_1			27.814326176125356			-6.9635881412915746			1.2550610528651873			
C_2			3.022729341505894			1.4692784822974347			1.7684556827631683			
C_2			10.384393276101937			-1.005990117173345			1.740725697219726			
8
stepId: 3099
C_0			2.442264359408245			5.064579403771649			1.2829343199675736			
C_0			5.89648036327484			16.038681742815207			1.1990851138648182			
C_0			8.955839647440312			8.655209076717478			1.3438124936662894			
C_0			20.162837395043248			-3.639764808415535			1.6719582327066091			
C_1			6.9329912198960715			-4.142717301639603			1.4033540100212594			
C_1			25.71084018869084			-6.35294569123453			1.5782691249511964			
C_2			3.1018953706715098			1.1898173614977106			1.4327522374217927			
C_2			11.151464240757251			-0.8266619048058369			1.6315773372344327			
8
stepId: 3199
C_0			4.138055106951252			5.176518032488212			1.7261059886971892			
C_0			7.623413558249395			14.81360091058777			1.792208031518112			
C_0			9.019552371357214			9.211719078827887			1.3056905054998331			
C_0			20.309475422317103			-5.823346726028146			1.3876013638244447			
C_1			8.069246300856577			-4.257770612826522			1.4051111603195534			
C_1			24.737331733951798			-7.121371882096656			1.5640519127753			
C_2			4.12417657437656			0.9813367538537175			1.5328667761452641			
C_2			11.744852968948134			-1.3219881885678235			1.74156923425816			
8
stepId: 3299
C_0			5.086568370376581			6.9400257334362685			1.7495437397413904			
C_0			6.324251896133221			18.3749317084616			1.4753627642358338			
C_0			7.898865334821543			10.779746315988252			1.5954540556917005			
C_0			21.915125537245736			-8.048433878117677			1.704243046619646			
C_1			7.961243235978992			-4.226604994366583			1.6669380940310041			
C_1			25.328000296543717			-4.025253946813095			1.498787114672247			
C_2			3.234508625730643			1.7537544228325537			1.5386339405348322			
C_2			10.643984882276964			-1.1631634070255354			1.6410276997850557			
8
stepId: 3399
C_0			4.107790057759661			6.954831619197813			1.33001865069304			
C_0			8.381212677205282			18.94282265525447			1.160205180393259			
C_0			7.57080978598713			10.05610355303528			1.454161443084256			
C_0			24.942630295455192			-9.872826081388922			1.6318973655607003			
C_1			6.18208073138501			-7.295981688827162			1.449441474066516			
C_1			24.218654886153555			-3.714513872945262			1.4073155794849748			
C_2			3.3449787949112824			0.6374530630365413			1.3623396687197828			
C_2			10.68995690561723			-1.0181792461045567			1.3880591408483252			
8
stepId: 3499
C_0			3.843228065374793			5.950933790478297			1.6511618156271552			
C_0			11.316088048655704			21.824788758473385			1.327266006418722			
C_0			7.676921731265913			9.063860356966467			1.526994323601711			
C_0			26.621699589646624			-8.117851130739606			1.617938053115535			
C_1			5.588666175366576			-3.774877528820017			1.2792914068138819			
C_1			23.326517958895618			-2.37643485068304			1.6001767782721468			
C_2			4.687787406631509			0.5297056773597618			1.4062815159155515			
C_2			11.940140482208896			-0.7978275525994734			1.2641077321893595			
8
stepId: 3599
C_0			1.9584342386322446			6.472067826440583			1.3101284063013217			
C_0			10.34022306189883			22.509144493738543			1.4438751301285784			
C_0			5.249665471246627			9.408386051784564			1.4476984337647187			
C_0			26.036638411216963			-6.563490120742784			1.5849599031614692			
C_1			5.001802850661927			-3.0264193991845563			1.5851409270518608			
C_1			25.139887599945293			-2.1391633555773053			1.4163929377781084			
C_2			4.960203584408055			1.22991064901118			1.8630655788687613			
C_2			12.256653085412543			-1.077892087159425			1.3408661691617574			
8
stepId: 3699
C_0			1.3453564316731244			6.6702897539311525			1.4216063916223804			
C_0			11.222870132772464			25.437988810408648			1.4055732443516167			
C_0			5.111049088585503			10.314907421143563			1.2620268828205838			
C_0			26.0112012305617			-5.672124483535268			2.1103261605312817			
C_1			3.5563003670741473			-4.62206551440651			1.4062926103461488			
C_1			25.24862491855765			-1.1901481525296471			1.4275035911582754			
C_2			4.3188597466286724			1.115742887543785			1.7056077197097512			
C_2			12.62045186365989			-1.2149032085271272			1.4126069493390876			
8
stepId: 3799
C_0			1.933871722151448			6.94921528147192			1.4162984741322815			
C_0			13.00723809111392			25.579261608018214			1.7875794179982971			
C_0			4.505906840041347			9.45664950136746			1.5572569375195537			
C_0			26.14828143894148			-5.773852445988656			1.4533151666646822			
C_1			1.3241191711158136			-2.7925063742317677			1.499614260158503			
C_1			24.764754408105283			-0.14273926087409566			1.5306446080574763			
C_2			3.9490432430961713			1.0035264872520824			1.6820475467386258			
C_2			11.721585062615912			-0.45581349558391815			1.5228685776285873			
8
stepId: 3899
C_0			0.7398807824355069			8.524406683916872			1.5042284697056587			
C_0			13.176098514788446			24.539346509357944			1.5098545677325588			
C_0			6.448132492206441			10.62502673274593			1.3496970471560046			
C_0			26.014771330797842			-4.439161201171821			1.6015959270463638			
C_1			1.0010488866766059			-4.1772113447554			1.3409358961651634			
C_1			25.750864921054454			0.1230424061686862			1.6861111426853597			
C_2			3.4580085493050667			1.4601548637024715			1.4443354392528855			
C_2			11.62951334920484			-0.12113728764926229			1.1958436490389521			
8
stepId: 3999
C_0			-0.4611447178341165			9.973231493856257			1.6351284415484086			
C_0			12.700423150202708			23.761133830239856			1.4342505687131952			
C_0			3.914845916987598			11.28996952744229			1.1620446067503538			
C_0			25.83163555012775			-2.2175260043023233			1.3090325806081675			
C_1			0.9454744994093665			-3.979735940834147			1.408808777366374			
C_1			24.773564478854			1.4026453268714956			1.4215257237618464			
C_2			3.8175647987924015			2.0531233994687264			1.5432423759265321			
C_2			12.674799794209067			-0.33253943387089835			1.41519925054823			
8
stepId: 4099
C_0			-1.4417570085795084			9.946963257041102			1.3858587844876955			
C_0			13.299702575683593			24.121508676911315			1.8641404657191232			
C_0			6.010040469351555			13.451132683581067			1.8213468747289019			
C_0			27.158012314433723			-2.3091484281108325			1.376922892117101			
C_1			-0.6610488388973641			-5.0059859811267104			1.1353546972043524			
C_1			26.77427089529005			1.4096222670395888			1.52659502625779			
C_2			3.4561033014884672			1.4789287158052309			1.6653925607269504			
C_2			11.532193870194542			-0.3165591706731254			1.3636662807979083			
8
stepId: 4199
C_0			-1.1912770370612873			10.462873849893791			1.774575514877668			
C_0			13.798167871379558			24.267929110896294			1.5704363585750813			
C_0			3.6640065800303487			12.31375387050326			1.600084418257218			
C_0			25.35448686556004			-3.3711012652778187			1.5753750079484994			
C_1			-0.020206864240404798			-3.9454706418157754			1.3232129157398154			
C_1			27.888572533507556			2.266824827480878			1.4646828291595553			
C_2			3.2069297921795656			1.7722885646901558			1.7680188640365748			
C_2			11.724514804901121			-1.2705624797630481			1.4719648458062293			
8
stepId: 4299
C_0			-0.9254112630011875			11.283185510412734			1.6471522838717159			
C_0			12.183376367546343			23.207010912503986			1.3877302291881004			
C_0			3.6278028431649063			12.705267036462994			1.2327625130721238			
C_0			22.04176402437233			-3.6711014455849025			1.3977609203324382			
C_1			2.0786438390115394			-2.416816789625606			1.3926578290525455			
C_1			28.017591341235853			3.991795514607019			1.325020043671447			
C_2			3.0922876046878605			2.440901306492892			1.5661628434358017			
C_2			12.521682412866415			-0.7509570250403137			1.3363442925538762			
8
stepId: 4399
C_0			-3.5240157824438			11.019299250273377			1.432255212910001			
C_0			13.12465060166145			25.198318817476558			1.6282878164871581			
C_0			0.10441570842695647			13.140143649854148			1.5762839980073218			
C_0			23.530843796383014			-3.2096896401399606			1.6503635993732004			
C_1			1.8211763042085127			-2.968561351843385			1.110119953750694			
C_1			27.476577832626024			4.184406476542997			1.3805520894910142			
C_2			3.5437462523017267			3.029625025162656			1.216535670218694			
C_2			12.682214016840119			-0.2467043194275416			1.3309180280592243			
8
stepId: 4499
C_0			-3.994125288992617			8.748030227593082			1.4978560048393348			
C_0			14.365497747106915			23.180933719850888			1.548875145884489			
C_0			2.4157654754399736			16.068217747048426			1.5034715484637107			
C_0			22.943287501331294			-4.775123834750271			1.4347692991850531			
C_1			1.7151272321102766			-2.638008283460067			1.5208332728193033			
C_1			25.41171129985696			3.9161438980044645			1.5721677219615673			
C_2			3.836570249506351			3.0867783305698855			1.4024297822471306			
C_2			12.776112938490673			0.3444771231172822			1.7363621425637923			
8
stepId: 4599
C_0			-3.907933361392175			8.777787165533832			1.5519936073958598			
C_0			16.27979641611891			23.318083757782325			1.5553802230391371			
C_0			3.2452668522687613			15.138734078594927			1.539461064081831			
C_0			24.011202568197575			-7.32024904051422			1.5401339914385808			
C_1			4.531778112130049			-4.227455204577781			1.7426474506865632			
C_1			22.28004957292561			2.4321304695746893			1.6518714085133892			
C_2			3.98709741062433			2.7284338848289775			1.5045502947927905			
C_2			13.930131436808717			-0.6020499263817891			1.3144846573190176			
8
stepId: 4699
C_0			-4.421868757670025			8.191260543026443			1.3146102091264904			
C_0			15.225163977999209			20.759968283976296			1.3841795341457592			
C_0			3.6922113989438583			14.682610106573575			1.445517703174998			
C_0			22.33668416551656			-9.134729224677143			1.3127464822661596			
C_1			6.30289769566438			-1.8592799606929222			1.5909607477335188			
C_1			22.434945709077613			2.037279099998716			1.325090899339152			
C_2			4.516929805539311			3.1343087564230006			1.4890610101257362			
C_2			13.125473486900795			-0.4693610457013757			1.4065990336424135			
8
stepId: 4799
C_0			-3.740147449063236			9.391836300251294			1.4366475788337103			
C_0			15.147096055991826			19.36829944507454			1.4138943270397017			
C_0			6.907805124022455			14.190394005887912			1.5632339844972996			
C_0			20.99150940711729			-9.222044318877808			1.398226229133091			
C_1			3.8779378661511723			-2.483019567564262			1.4477911130633392			
C_1			20.439251624999102			3.533393637388099			1.8330859622479678			
C_2			4.9546609732918085			3.8849203211868617			1.3232902045379176			
C_2			13.512848892150013			-0.5049394693628951			1.432494443011463			
8
stepId: 4899
C_0			-4.4575948935848535			8.407292124830398			1.407610253880201			
C_0			16.49541375894915			19.169926714739145			1.5299743974875133			
C_0			7.70109589631754			12.451317901989091			1.6044836097100719			
C_0			20.74213439851351			-12.395774735570857			1.523496795453449			
C_1			3.7625957434148525			-1.6214845413297307			1.313144636038899			
C_1			21.09482874990864			2.504378230277309			1.2267236086617568			
C_2			5.748404437492619			2.7840011414963626			1.3613526597490444			
C_2			13.25361636007162			-1.663422756020188			1.4474186274126433			
8
stepId: 4999
C_0			-5.117789059634555			9.023948933859725			1.4985990133752563			
C_0			16.246400814121127			18.793594463159756			1.386826646249586			
C_0			7.41920794121706			11.691872350509605			1.336658976198828			
C_0			21.51529306890148			-12.286264933138085			1.2696172445705942			
C_1			4.118474592262071			-1.9429939489429586			1.607997194994955			
C_1			19.92496104707656			2.68903536893737			1.282482655146026			
C_2			5.334972557472643			3.4015034141874123			1.500512859856256			
C_2			11.79166095147835			-1.9157044383902955			1.2589953588870166			
8
stepId: 5099
C_0			-4.670136732296275			9.698488814232096			1.1755573651596811			
C_0			15.102940090492304			18.42673896439549			1.4350717981645875			
C_0			7.493296620054233			11.50734699195452			1.6240844656282256			
C_0			21.500737844747547			-12.418767315319611			1.2457881124948669			
C_1			2.7454131662680026			-2.347394092652224			1.4912975650263365			
C_1			20.89606658562593			2.825363922316556			1.4114548774342541			
C_2			4.232484279609612			3.1144923268964426			1.5695883273711944			
C_2			11.938107074545822			-2.031004495433361			1.6061139491470995			
8
stepId: 5199
C_0			-3.391586584798208			8.138502455205753			1.2410715722914558			
C_0			15.04334834879014			19.428589743550397			1.3078595671615576			
C_0			10.259191466411593			10.109579481647598			1.6406958376735505			
C_0			20.231150593624687			-12.762961293796781			1.5146096337848391			
C_1			1.6581738910451183			-2.665075752482407			1.727776004937819			
C_1			19.487529468125818			2.518403036151452			1.7013920887708565			
C_2			5.097176315604177			3.580387217014806			1.461285669635413			
C_2			11.828554911311686			-2.6116454304698062			1.8095233946584657			
8
stepId: 5299
C_0			-4.038653835728115			9.280457299892374			1.4455131812098532			