LAMMPS (7 Jul 2009)
# let's have a two-mol collision:

dimension	3
boundary	f f f
units		real
newton          on

atom_style	srsim spass_wo.bngl spass.geo spass.tgeo 23456


## read_data data.gerdl
lattice none
region		        Nukleus block 0 100.0 0 100.0 0 100.0 units box
create_box	        10 Nukleus
Created orthogonal box = (0 0 0) to (100 100 100)
  1 by 1 by 1 processor grid

#                       name
start_state_srsim       coeffs

start_state_srsim       atoms

# Stimulation:
#                              Brownian Temp Temp damping randomSeed
fix 		     2   all   langevin  300  300  200.0   34567
fix		     1   all   nve

#  SRSim Reactions:  id  group fixName | nEvery  randomSeed  preFactBindR preFactBreakR preFactExchangeR preFactModifyR_1 preFactModifyR_2
fix 		     3   all   srsim     1       45678          4.7           1e-3           1.0                1.0e-3           4.7
fix          4   all   wall/reflect xlo xhi ylo yhi zlo zhi

# da primal big deeest!

# neighbour lists:
# neigh_modify	exclude molecule ABC

# Dumps:
timestep	1.0
thermo		500

dump            2 all srsim 50 wo_scf.srsim.gdat

dump           1 all atom 10 spass.lammpstrj
dump_modify    1 scale yes
#dump_modify    1 every 50


# Stimulation
run 		100000
Memory usage per processor = 5.88597 Mbytes
Step Temp E_pair E_mol TotEng Press 
       0            0     9.104487            0     9.104487   0.77980885 
     500    303.35154            0            0    297.49276    13.599071 
    1000    304.42391    1.1934712            0    299.73789    13.827659 
    1500    275.48321            0            0    270.16266     12.34975 
    2000    297.50957    1.8357875            0    293.59941    13.554745 
    2500    301.84888  0.066736012            0    296.08586    13.587127 
    3000    302.82839            0            0    296.97971    13.575619 
    3500    305.87074            0            0     299.9633    13.712006 
    4000    299.18349            0            0    293.40521     13.41222 
    4500    315.89183  0.052953999            0    309.84381    14.210942 
    5000    310.54721            0            0    304.54946    13.921649 
    5500    311.57598            0            0    305.55836    13.967768 
    6000    308.29962   0.15867058            0    302.50395    13.924254 
    6500    287.44711            0            0     281.8955    12.886085 
    7000    312.39216  0.016380494            0    306.37516    14.032646 
    7500    295.50687            0            0     289.7996    13.247399 
    8000    309.26995            0            0    303.29687     13.86439 
    8500    308.76602 0.0015865481            0    302.80425     13.85077 
    9000    294.24853            0            0    288.56556    13.190989 
    9500    323.12868            0            0    316.88794    14.485669 
   10000    324.22649   0.47294111            0    318.43749    14.691194 
   10500    277.34229            0            0    271.98584    12.433092 
   11000    285.18463  0.035240677            0    279.71196    12.825601 
   11500    315.20048            0            0    309.11286    14.130252 
   12000    300.87732            0            0    295.06633    13.488154 
   12500    312.40497   0.15695161            0    306.52829    14.087043 
   13000    278.33784      0.01039            0    272.97255    12.504418 
   13500    304.26583            0            0     298.3894    13.640059 
   14000    276.96091            0            0    271.61183    12.415995 
   14500     316.3632            0            0    310.25312    14.182377 
   15000    327.81232   0.13495707            0    321.61608    14.772344 
   15500     297.0665            0            0    291.32911    13.317317 
   16000    294.34745            0            0    288.66257    13.195423 
   16500    282.80016            0            0     277.3383    12.677765 
   17000    301.38962   0.64258911            0    296.21132    13.738885 
   17500    294.21633   0.27644793            0    288.81043    13.294752 
   18000    297.73777            0            0    291.98742     13.34741 
   18500    285.11551            0            0    279.60894    12.781561 
   19000    295.20663            0            0    289.50516     13.23394 
   19500    308.24302            0            0    302.28977    13.818354 
   20000    299.29831            0            0    293.51782    13.417368 
   20500    315.53199  0.029918481            0    309.46788    14.182964 
   21000     295.2988 0.0071759015            0    289.60272    13.256972 
   21500    310.33354    0.9858577            0    305.32577    14.228479 
   22000    281.78016   0.94639388            0    277.28439    12.848037 
   22500    321.08009            0            0    314.87891    14.393832 
   23000    315.83738            0            0    309.73746    14.158804 
   23500    291.60184   0.24561333            0     286.2156    13.192242 
   24000    322.99183    1.5251054            0    318.27884    14.792778 
   24500    315.77469            0            0    309.67598    14.155994 
   25000    301.77707  0.045111582            0    295.99381    13.574549 
   25500    299.84766            0            0    294.05655    13.441995 
   26000    305.66414   0.98340281            0     300.7441    13.918471 
   26500    288.64641            0            0    283.07164    12.939849 
   27000    299.94219   0.16436488            0    294.31363    13.552265 
   27500    289.40631            0            0    283.81686    12.973915 
   28000    301.56134    0.5465803            0    296.28372    13.657518 
   28500    317.29112            0            0    311.16312    14.223974 
   29000    303.64787   0.40993459            0     298.1933    13.799578 
   29500    301.30733  0.083040134            0    295.57107    13.568806 
   30000    306.00671            0            0    300.09665    13.718101 
   30500     300.1246  0.068376328            0    294.39652    13.510463 
   31000    310.97159  0.087780306            0    305.05342    14.003652 
   31500     291.6111   0.23856398            0    286.21764    13.171512 
   32000    290.39093            0            0    284.78247    13.018055 
   32500    336.21086            0            0    329.71745    15.072135 
   33000    295.49008   0.10368822            0    289.88683    13.344028 
   33500    314.97753   0.59025214            0    309.48447    14.302208 
   34000    289.44187            0            0    283.85173    12.975509 
   34500    276.34315   0.14942458            0    271.15542       12.504 
   35000    303.78029            0            0    297.91323    13.618292 
   35500    292.83415            0            0     287.1785    13.127583 
   36000    293.50328            0            0    287.83471     13.15758 
   36500    300.69006            0            0    294.88268    13.479759 
   37000    334.42242   0.49468058            0    328.45824    15.125432 
   37500    275.66125    2.7492857            0    273.08656    12.565677 
   38000    298.08475            0            0    292.32769    13.362964 
   38500    297.78738   0.11107109            0    292.14713    13.419828 
   39000    285.39115   0.74222379            0    280.62147    12.949078 
   39500    294.12878  0.046517102            0    288.49464    13.232357 
   40000    296.90742            0            0     291.1731    13.310185 
   40500    315.43644  0.057047768            0    309.40131    14.192307 
   41000    315.10279            0            0    309.01706    14.125873 
   41500    305.37005   0.22240865            0    299.69469    13.785357 
   42000    319.48825            0            0    313.31782    14.322471 
   42500    305.40344   0.48998896            0    299.99502    13.824033 
   43000    291.31319            0            0    285.68692    13.059399 
   43500    319.04894            0            0    312.88699    14.302777 
   44000    282.74095            0            0    277.28024    12.675111 
   44500    290.74626            0            0    285.13093    13.033984 
   45000    280.64052            0            0    275.22037     12.58095 
   45500    323.04547  0.077862396            0     316.8842    14.541502 
   46000     294.0597   0.28117615            0    288.66155    13.288492 
   46500    304.59998            0            0    298.71709    13.655038 
   47000    284.81585            0            0    279.31506    12.768127 
   47500    296.66909            0            0    290.93938    13.299501 
   48000    305.10635   0.33758377            0    299.55126    13.792167 
   48500    310.22842  0.057874084            0     304.2947    13.959185 
   49000    260.09415  0.066424016            0    255.13725    11.715165 
   49500    292.85955 0.0020289477            0    287.20544    13.143083 
   50000    281.63784  0.029411719            0    276.22784      12.6632 
   50500    286.56756            0            0    281.03294    12.846655 
   51000    288.71461            0            0    283.13853    12.942907 
   51500    288.37878            0            0    282.80917    12.927851 
   52000    292.91855            0            0    287.26127    13.131367 
   52500    323.95382            0            0    317.69714     14.52266 
   53000    304.58165 0.0011935289            0    298.70031    13.662006 
   53500    284.28462            0            0    278.79409    12.744312 
   54000    287.06687  0.028916777            0    281.55152    12.906275 
   54500    308.86067  0.024401161            0    302.91989    13.880354 
   55000    289.13429    1.4494137            0    284.99951    13.151651 
   55500    299.06529            0            0    293.28929    13.406921 
   56000    304.20167            0            0    298.32647    13.637182 
   56500    338.44694            0            0    331.91034    15.172377 
   57000    283.02175    0.1790271            0    277.73464    12.774776 
   57500     319.5764            0            0    313.40426    14.326422 
   58000    305.49815            0            0    299.59791    13.695303 
   58500    315.95974  0.064498657            0    309.92195    14.218828 
   59000    325.17819            0            0    318.89787    14.577548 
   59500    296.67492   0.02575039            0    290.97084    13.334977 
   60000    296.72206            0            0    290.99132    13.301876 
   60500     287.7928    1.0356073            0    283.27012    13.171194 
   61000    314.13786 0.0082949088            0    308.07905    14.102909 
   61500    286.91216            0            0    281.37089    12.862104 
   62000    274.82796  0.054584853            0    269.57465    12.392146 
   62500    310.59208            0            0    304.59346     13.92366 
   63000    298.02617            0            0    292.27025    13.360338 
   63500    295.48226            0            0    289.77547    13.246296 
   64000     303.6106  0.054884334            0     297.8017     13.66123 
   64500    303.17172   0.19668904            0     297.5131    13.696927 
   65000    309.41724            0            0    303.44131    13.870993 
   65500    297.97541   0.35178565            0    292.57225     13.47446 
   66000    289.62117   0.23431595            0    284.26189    13.127093 
   66500    302.67896   0.62236358            0    297.45554    13.714545 
   67000    302.65415            0            0    296.80884    13.567808 
   67500    298.90932            0            0    293.13634    13.399929 
   68000    299.10757            0            0    293.33075    13.408817 
   68500    287.80946            0            0    282.25086    12.902329 
   69000    300.79977            0            0    294.99028    13.484677 
   69500    279.75864   0.73979804            0    275.09532    12.696398 
   70000    305.54166    1.1007113            0    300.74129    13.873603 
   70500    295.78781    2.0541931            0     292.1293    13.579314 
   71000    293.39313            0            0    287.72669    13.152642 
   71500    287.35077            0            0    281.80102    12.881766 
   72000     290.4329            0            0    284.82362    13.019936 
   72500    300.64745            0            0    294.84089    13.477849 
   73000    276.31843            0            0    270.98176    12.387193 
   73500    288.39588            0            0    282.82595    12.928618 
   74000    297.28353            0            0    291.54195    13.327046 
   74500    314.85496            0            0    308.77401    14.114763 
   75000    309.57669            0            0    303.59768    13.878141 
   75500    309.89134  0.011748488            0    303.91801    13.916308 
   76000    300.55287            0            0    294.74815    13.473609 
   76500    307.57927   0.01004271            0    301.64889    13.810883 
   77000    315.81799  0.020845308            0    309.73928    14.189732 
   77500    307.46108            0            0    301.52293      13.7833 
   78000    291.62985   0.84162752            0    286.83909    13.235592 
   78500    287.11575            0            0    281.57054    12.871231 
   79000    298.24596            0            0    292.48579    13.370191 
   79500    289.93071            0            0    284.33113    12.997423 
   80000    295.81536   0.26153881            0    290.36367    13.363974 
   80500    304.86217   0.36008038            0    299.33429    13.784312 
   81000    315.05613   0.17015168            0    309.14144    14.208911 
   81500    281.10722   0.30146481            0    275.97952    12.757503 
   82000    312.33231            0            0    306.30008    14.001674 
   82500    288.75807            0            0    283.18115    12.944855 
   83000    290.21493            0            0    284.60987    13.010165 
   83500    322.18732            0            0    315.96476    14.443468 
   84000    314.40145            0            0    308.32926    14.094433 
   84500    302.76824            0            0    296.92073    13.572922 
   85000    310.05057            0            0    304.06241    13.899385 
   85500    287.77639            0            0    282.21842    12.900847 
   86000    310.13903   0.16017235            0    304.30933    13.986213 
   86500    291.18544   0.41788896            0    285.97952    13.178526 
   87000    293.61881   0.48016339            0    288.42817    13.294687 
   87500    300.98551   0.29313664            0    295.46557    13.629476 
   88000    286.41599  0.013156243            0    280.89745    12.875059 
   88500    290.24302   0.17256801            0    284.80998     13.09709 
   89000      292.543 0.0045649597            0    286.89754     13.12966 
   89500    318.27947            0            0    312.13239    14.268282 
   90000    304.53015            0            0    298.64861    13.651908 
   90500    285.54819 0.0072439644            0     280.0405    12.819946 
   91000    293.03482   0.27908216            0    287.65437     13.27745 
   91500    300.54292            0            0    294.73838    13.473163 
   92000    295.64927  0.051119863            0    289.99037    13.302658 
   92500    283.30947            0            0    277.83777    12.700597 
   93000    317.14205            0            0    311.01693    14.217292 
   93500    300.85226  0.019096795            0    295.06085    13.517507 
   94000    312.78517            0            0    306.74419    14.021975 
   94500    297.75542            0            0    292.00472    13.348201 
   95000    301.61885  0.051915459            0    295.84546     13.57063 
   95500     284.3146            0            0    278.82349    12.745657 
   96000    283.37288            0            0    277.89996     12.70344 
   96500    316.44547 0.00077990589            0    310.33459     14.19237 
   97000    330.29857   0.30316241            0    324.22252    14.916488 
   97500    308.59284            0            0    302.63284    13.834036 
   98000    302.84376            0            0    296.99478    13.576308 
   98500    288.43337   0.24662091            0    283.10933    13.064517 
   99000    260.80971            0            0    255.77256    11.691946 
   99500    284.69182  0.065161683            0    279.25859    12.817369 
  100000    308.91615   0.20896166            0    303.15886    13.941752 
Loop time of 10.6094 on 1 procs for 100000 steps with 330 atoms

Pair  time (%) = 0.167969 (1.58321)
Bond  time (%) = 0.0078125 (0.0736377)
Neigh time (%) = 1.09375 (10.3093)
Comm  time (%) = 0.0273438 (0.257732)
Outpt time (%) = 4.84375 (45.6554)
Other time (%) = 4.46875 (42.1208)

Nlocal:    330 ave 330 max 330 min
Histogram: 1 0 0 0 0 0 0 0 0 0
Nghost:    0 ave 0 max 0 min
Histogram: 1 0 0 0 0 0 0 0 0 0
Neighs:    18 ave 18 max 18 min
Histogram: 1 0 0 0 0 0 0 0 0 0

Total # of neighbors = 18
Ave neighs/atom = 0.0545455
Ave special neighs/atom = 0
Neighbor list builds = 5848
Dangerous builds = 0




