149
stepId: -1
C_1			1.1			1.1			0.1			
C_1			1.2			1.2			0.2			
C_1			1.3			1.3			0.3			
C_1			1.4			1.4			0.4			
C_1			1.5			1.5			0.5			
C_1			1.6			1.6			0.6			
C_1			1.7			1.7			0.7			
C_1			1.8			1.8			0.8			
C_1			1.9			1.9			0.9			
C_1			2.0			2.0			0.0			
C_1			2.1			2.1			0.1			
C_1			2.2			2.2			0.2			
C_1			2.3			2.3			0.3			
C_1			2.4			2.4			0.4			
C_1			2.5			2.5			0.5			
C_1			2.7			2.7			0.7			
C_1			2.6			2.6			0.6			
C_1			2.9			2.9			0.9			
C_1			2.8			2.8			0.8			
C_1			3.1			3.1			0.1			
C_1			3.0			3.0			0.0			
C_1			3.3			3.3			0.3			
C_1			3.2			3.2			0.2			
C_1			3.5			3.5			0.5			
C_1			3.4			3.4			0.4			
C_1			3.7			3.7			0.7			
C_1			3.6			3.6			0.6			
C_1			3.9			3.9			0.9			
C_1			3.8			3.8			0.8			
C_2			4.1			4.1			0.1			
C_2			4.0			4.0			0.0			
C_2			4.4			4.4			0.4			
C_2			4.5			4.5			0.5			
C_2			4.2			4.2			0.2			
C_2			4.3			4.3			0.3			
C_2			4.8			4.8			0.8			
C_2			4.9			4.9			0.9			
C_2			4.6			4.6			0.6			
C_2			4.7			4.7			0.7			
C_2			5.2			4.2			0.2			
C_2			5.3			4.3			0.3			
C_2			5.0			4.0			0.0			
C_2			5.1			4.1			0.1			
C_2			5.6			4.6			0.6			
C_2			5.7			4.7			0.7			
C_2			5.4			4.4			0.4			
C_2			5.5			4.5			0.5			
C_2			6.1			4.1			0.1			
C_2			6.0			4.0			0.0			
C_2			5.9			4.9			0.9			
C_2			5.8			4.8			0.8			
C_2			6.5			4.5			0.5			
C_2			6.4			4.4			0.4			
C_2			6.3			4.3			0.3			
C_2			6.2			4.2			0.2			
C_2			6.9			4.9			0.9			
C_2			6.8			4.8			0.8			
C_2			6.7			4.7			0.7			
C_2			6.6			4.6			0.6			
C_3			7.3			4.3			0.3			
C_3			7.2			4.2			0.2			
C_3			7.1			4.1			0.1			
C_3			7.0			4.0			0.0			
C_3			7.8			4.8			0.8			
C_3			7.9			4.9			0.9			
C_3			8.0			4.0			0.0			
C_3			8.1			4.1			0.1			
C_3			7.4			4.4			0.4			
C_3			7.5			4.5			0.5			
C_3			7.6			4.6			0.6			
C_3			7.7			4.7			0.7			
C_3			8.6			4.6			0.6			
C_3			8.7			4.7			0.7			
C_3			8.8			4.8			0.8			
C_3			8.9			4.9			0.9			
C_3			8.2			4.2			0.2			
C_3			8.3			4.3			0.3			
C_3			8.4			4.4			0.4			
C_3			8.5			4.5			0.5			
C_3			9.5			4.5			0.5			
C_3			9.4			4.4			0.4			
C_3			9.7			4.7			0.7			
C_3			9.6			4.6			0.6			
C_3			9.1			4.1			0.1			
C_3			9.0			4.0			0.0			
C_3			9.3			4.3			0.3			
C_3			9.2			4.2			0.2			
C_3			9.9			4.9			0.9			
C_3			9.8			4.8			0.8			
C_4			0.3			4.3			1.3			
C_4			0.2			4.2			1.2			
C_4			0.5			4.5			1.5			
C_4			0.4			4.4			1.4			
C_4			0.1			4.1			1.1			
C_4			0.0			4.0			1.0			
C_4			0.2			4.2			2.2			
C_4			0.3			4.3			2.3			
C_4			0.0			4.0			2.0			
C_4			0.1			4.1			2.1			
C_4			0.8			4.8			1.8			
C_4			0.9			4.9			1.9			
C_4			0.6			4.6			1.6			
C_4			0.7			4.7			1.7			
C_4			6.0			4.0			3.0			
C_4			6.1			4.1			3.1			
C_4			0.8			4.8			2.8			
C_4			0.9			4.9			2.9			
C_4			0.6			4.6			2.6			
C_4			0.7			4.7			2.7			
C_4			0.4			4.4			2.4			
C_4			0.5			4.5			2.5			
C_4			6.9			4.9			3.9			
C_4			6.8			4.8			3.8			
C_4			6.7			4.7			3.7			
C_4			6.6			4.6			3.6			
C_4			6.5			4.5			3.5			
C_4			6.4			4.4			3.4			
C_4			6.3			4.3			3.3			
C_4			6.2			4.2			3.2			
C_5			4.7			4.7			4.7			
C_5			4.6			4.6			4.6			
C_5			4.5			4.5			4.5			
C_5			4.4			4.4			4.4			
C_5			4.3			4.3			4.3			
C_5			4.2			4.2			4.2			
C_5			4.1			4.1			4.1			
C_5			4.0			4.0			4.0			
C_5			5.7			4.7			5.7			
C_5			5.6			4.6			5.6			
C_5			5.9			4.9			5.9			
C_5			5.8			4.8			5.8			
C_5			6.1			4.1			6.1			
C_5			6.0			4.0			6.0			
C_5			6.3			4.3			6.3			
C_5			6.2			4.2			6.2			
C_5			4.9			4.9			4.9			
C_5			4.8			4.8			4.8			
C_5			5.1			4.1			5.1			
C_5			5.0			4.0			5.0			
C_5			5.3			4.3			5.3			
C_5			5.2			4.2			5.2			
C_5			5.5			4.5			5.5			
C_5			5.4			4.4			5.4			
C_5			6.4			4.4			6.4			
C_5			6.5			4.5			6.5			
C_5			6.6			4.6			6.6			
C_5			6.7			4.7			6.7			
C_5			6.8			4.8			6.8			
C_5			6.9			4.9			6.9			
149
stepId: 100
C_1			0.18030455761321337			0.8642572765569541			0.7772534449687772			
C_1			1.083224558533106			2.1018437942867685			0.27607680802463685			
C_1			1.1691982054758905			1.2634502813009374			-0.021094095702345963			
C_1			2.226615177888126			1.2852302024036126			0.565989034546517			
C_1			1.1317001957700508			0.847129419549388			0.08824785733031579			
C_1			2.1945942071362765			1.6891748242229965			0.2611100002773202			
C_1			1.2881435835939894			1.3594427227643768			1.5760246334187074			
C_1			2.1253002408866717			1.6225931926441797			0.9087039631150456			
C_1			2.11653078460931			2.4469748296412264			0.7947834998455726			
C_1			1.6221755332778447			1.7826782077065588			-0.715913715394702			
C_1			2.726243449412764			1.1048345061530962			-0.466193510170491			
C_1			0.9889071072827801			1.6110179617440912			0.4547214067612997			
C_1			2.1033829651224862			1.5778317005319453			-0.5268941669267745			
C_1			2.2305974761680742			2.224071074921734			0.520440388575963			
C_1			2.4319817556520293			2.641937925003695			1.1389310112109317			
C_1			3.1656911857330727			2.1776734588214066			0.042483478686246204			
C_1			2.6701840193091226			3.687549984575774			0.03023827976990956			
C_1			3.2327748423439333			2.5947419439546393			0.7416297796719137			
C_1			3.2697877284964316			2.311169647049621			1.012790166309066			
C_1			4.0568298021809905			2.4475814657632213			-0.1410714579229476			
C_1			2.2077254558536503			2.7721132003716407			-0.711300172440462			
C_1			4.4282769589899855			2.9071154545289515			0.945300348178846			
C_1			3.1678320660654684			3.207006891623284			-4.542846441623517E-4			
C_1			4.777106826501195			3.6445794752409646			-0.36658713649936203			
C_1			3.2753190109008026			2.9365942921602426			0.3648984565152907			
C_1			3.557838727365632			3.9890936191871			0.830506922653255			
C_1			3.1786085186641264			4.252085570630253			-0.3902382819380005			
C_1			4.256383700705927			4.103498676185142			-0.15387326759287848			
C_1			3.934761306166977			3.606164859596389			1.5413246842519404			
C_2			3.2142294411455294			4.6545230682763385			3.128398692315348			
C_2			2.3996274317901607			4.36315973817669			2.6765422091819056			
C_2			3.661972745133939			4.121112081696002			2.8635805565250365			
C_2			4.534848828440849			5.768186882561839			2.668520379579537			
C_2			2.9553438333211175			5.303855736401984			2.682545556483046			
C_2			2.918589767952413			5.187481948848688			2.2269544691242547			
C_2			3.477664379338563			5.90904109112864			3.3161894672133316			
C_2			3.965748446875029			5.111689089515014			3.8207267855934473			
C_2			3.1787314544257566			4.868834683990819			2.114741766286779			
C_2			4.022738142454321			5.819749724206152			1.9828956711940988			
C_2			4.819497048500586			4.353183565715915			2.896539021930551			
C_2			3.5239754966305727			4.847614583213844			2.1454473433766807			
C_2			5.463112840259956			3.379578558618173			2.682491683953312			
C_2			4.143135387630169			4.867648127687928			2.4624826208062234			
C_2			5.295816730253645			5.9504888487490835			2.2218511209217913			
C_2			5.563393461528977			5.492269227345246			3.3768460648698273			
C_2			5.471101267307583			4.195855366454242			3.101875315301692			
C_2			4.612993868409565			5.2467540275892155			2.713516919256467			
C_2			4.984123552975254			4.398902411496157			1.9239645656674138			
C_2			6.129339929625547			3.816552738256581			2.638506725605378			
C_2			5.397036839698108			5.696248502387654			3.565798104321768			
C_2			5.632415239852454			5.503610253492794			2.8305886655087202			
C_2			5.983488519750911			5.942794983177017			2.0229981859392505			
C_2			5.899276034230821			3.9198315082971824			3.61254264189908			
C_2			5.863181323502658			5.079899728173396			2.2145985466177582			
C_2			5.878356082271546			4.351502088163164			1.9697859082295828			
C_2			6.333663191083515			6.29670314306114			3.409525174463785			
C_2			6.487923045856026			5.565198610190416			2.5679821199365613			
C_2			6.554120248739471			5.111410576090571			3.714399836886252			
C_2			6.759669761662901			5.584539834095733			3.194518483522348			
C_3			5.91169418509446			3.774124995572973			6.697494767759386			
C_3			4.747096015004429			2.4155825211604065			6.157108244518132			
C_3			5.846354508671167			3.3221791605737994			6.462539055394712			
C_3			5.793490356573235			2.173857956403826			5.490878470787604			
C_3			6.145136459590943			3.365636954344126			7.480632795611318			
C_3			6.264588198597978			4.0516443656874355			7.152346190095647			
C_3			6.346532242521765			2.1969496373650896			5.18816528511898			
C_3			6.400864887039838			2.53290876952238			6.472220912073022			
C_3			5.941510899437837			1.8596629400358384			6.591872652244112			
C_3			5.669212797400463			3.5637870305761115			5.248546154738543			
C_3			6.648956397390809			2.514906292453492			7.407316860605275			
C_3			6.754739072032654			3.5289304238774695			7.680259128659878			
C_3			7.320790477074044			3.360150758541102			7.053857121193352			
C_3			8.21701393054857			2.7744418478691633			7.513203242544753			
C_3			7.811439822845678			4.2106948840251635			7.538704978512311			
C_3			7.553242183390044			3.9105977971868278			6.718750567379614			
C_3			6.779998330309505			2.488132095704389			6.127107051358623			
C_3			6.974110907207259			3.650220750185554			6.318248012345005			
C_3			6.864781479464347			2.773615140973304			6.661024502131131			
C_3			7.078971387708843			3.5009967644275672			7.3442025660042916			
C_3			8.714232548312188			3.137452506295241			6.761821662986271			
C_3			8.406103030676533			1.645139097926192			5.732992560034005			
C_3			8.741091026679467			2.209268735326477			6.763721715866591			
C_3			8.537498896997507			3.0118009402740498			7.176145900582473			
C_3			7.627090717549828			3.65079887593057			5.792521163313026			
C_3			7.861887657077659			2.5675929365881185			6.2612538634308095			
C_3			7.972049278757966			2.6034879957559873			6.172639617732681			
C_3			8.171768966177133			3.4464414804449794			6.644856562823651			
C_3			9.25051481887874			2.7155918591665973			7.010866926995028			
C_3			8.95017059920614			4.22736325730804			7.931352350307093			
C_4			2.401530934253385			1.5480390419711976			9.379451710471606			
C_4			3.161041574307959			0.9083419935120421			9.098870974236977			
C_4			3.2883887602811543			1.5082668690531047			8.90386042998835			
C_4			2.239875608510572			1.598925992239863			8.497604397850449			
C_4			2.6669859373889624			0.6768647800311629			8.905417167623208			
C_4			2.2732188832663893			1.0703168042097895			8.278383444244124			
C_4			2.1735574648254476			0.5915538818573134			9.474301766860336			
C_4			3.0660664928812844			1.6191816463096123			10.115934175511256			
C_4			2.9168347076782513			1.50540769540384			9.918935899922237			
C_4			1.9941168074291353			1.5415147952070445			9.578608466035725			
C_4			3.0528280909788887			2.18597979973468			9.537886070588202			
C_4			2.921087297156637			2.0062771660668774			9.721254581309724			
C_4			3.3858127231199773			2.2410048682624577			8.622248616295309			
C_4			3.7260200726208663			1.6710023635805469			9.453749327654773			
C_4			7.034276935482861			1.9774450086975959			10.040874182540577			
C_4			7.771267396605142			1.1355471582187007			10.18343703001793			
C_4			2.8700759033805605			2.6103403276630197			10.53447384694808			
C_4			3.2704898287294193			3.0878788145449576			10.928306986927279			
C_4			2.6463956167497664			1.844656050841717			10.740569096416683			
C_4			3.0186771612931738			2.545140048814296			10.191974864805422			
C_4			2.907456872450301			0.4621910695237784			10.144318232891521			
C_4			2.572887930892577			2.1291396127242153			9.851949362197152			
C_4			7.903103398358787			2.7938230561315716			11.162024621909081			
C_4			7.236217352595553			2.8224139192498505			10.571990489855878			
C_4			8.096597467437418			2.7999061115508543			10.601493591715364			
C_4			7.810071393884684			2.8077024760085263			10.492339942147748			
C_4			6.923878022440623			1.5228664647260672			11.332406802077694			
C_4			6.6488916422089765			2.774513791851659			10.935787770343342			
C_4			6.799319258237039			2.297734549615138			10.296620921601319			
C_4			6.344575383545957			1.2899002305723115			10.036061343799139			
C_5			8.908158998740033			1.4040302535430569			6.288509982319146			
C_5			7.951889921154973			1.539847031574659			6.436520691719852			
C_5			8.015355529376674			0.9973479082273463			6.509833667373724			
C_5			8.745487471535206			1.0284478940010353			5.673364207807522			
C_5			7.207255705910931			-0.14886466371190962			4.979233346191314			
C_5			7.184387774430841			0.5638306726721166			6.627698183823984			
C_5			7.426467639771446			0.5115137524078216			5.903887190812259			
C_5			7.342271442068281			0.39149270762131183			5.809925290888923			
C_5			9.013177462779494			1.3214940867846259			7.018101191181598			
C_5			8.828332939609036			1.9215133867661995			7.000932850918126			
C_5			9.811057026417718			1.7721089834480221			7.061311118036044			
C_5			9.175595995588314			2.275545915552868			7.832294797893941			
C_5			9.872541731133762			0.8004303923259205			7.078660581702924			
C_5			9.196447248084898			0.22470524513302195			7.583901236002414			
C_5			9.814828573769333			0.9712931597064594			7.919924520430345			
C_5			10.193835328065976			1.282870613025193			7.483559260414591			
C_5			8.519623644403591			1.0914350419396275			5.770009762924876			
C_5			8.947210707241394			1.74437142770537			6.355376956853989			
C_5			9.33375133144913			0.8096548890897549			6.341570615691956			
C_5			7.951272735879866			0.01667545312764016			6.1577947980621595			
C_5			9.336890950115611			1.613443256597563			6.903966624762613			
C_5			8.363162718667349			0.5456420228086802			6.9800373729584315			
C_5			7.732043519498557			0.40469505409388157			7.826490425646403			
C_5			9.252663959605023			0.4355514189239616			6.7577839023661195			
C_5			8.742295593195932			0.710628483070301			8.871638199049942			
C_5			10.47289180438385			1.4850287513654874			8.176158935060812			
C_5			9.554901846778778			1.1489946987131776			8.570650108991957			
C_5			10.686398619999439			1.4179754033990803			7.6689516670951035			
C_5			9.773667049380071			1.4988610500417712			8.7411282645188			
C_5			11.016191523799426			2.392665366971649			8.70803098442868			
149
stepId: 200
C_1			0.4456884333836265			0.9432524171273622			0.4324745993944492			
C_1			0.9351812071001031			1.7450298116647482			0.15943215882029713			
C_1			1.299581164777175			0.9946188687864314			-0.4974567428708573			
C_1			2.6115487034069234			1.75595642911099			0.06868115316261783			
C_1			-0.019583460069883277			1.1898160788774297			0.2533299549996886			
C_1			1.424194595349514			1.6299163940863135			-0.5266959343236106			
C_1			0.5951825448116994			1.450407917034563			0.9219774722657439			
C_1			2.2965833706527063			1.0991725413978366			0.5672198733987676			
C_1			2.024834373564305			2.7222990602669532			0.7085164725804355			
C_1			2.404809755097709			1.5828075494295488			-0.8574427461292967			
C_1			2.6665344073831805			0.6093770809418256			-0.4523977562691968			
C_1			1.6441486465517523			1.7242578500877381			0.3650928317090942			
C_1			2.368191881348389			1.2630796274619325			-1.2219526887258503			
C_1			2.530215736348179			1.881611218547381			0.8282742339707727			
C_1			1.7130263971008124			2.7428317699190443			1.0191683028208487			
C_1			2.821060702824686			1.3258830793471281			-0.08576303792749017			
C_1			3.099106261448367			3.8571750022898215			-0.7508499063430424			
C_1			3.204221909759164			2.7138549459841004			0.4785349021230066			
C_1			3.702244302951332			2.4240329880970815			0.8791875770118527			
C_1			3.685586987890893			2.5376452525188267			0.1872605272522891			
C_1			2.643143133866622			2.642540439491837			-0.8184977846212991			
C_1			4.727619412127835			2.5406766164515076			0.7646675769667037			
C_1			2.210439076127826			4.1027655718039115			0.1370875688256234			
C_1			4.706828232277832			3.484134906538407			-0.6362534287766709			
C_1			3.465783803804611			3.295164249250622			0.005371166266364966			
C_1			3.8093091773594594			4.222195948916602			-0.40274748100949287			
C_1			2.4747720908630444			4.2773058932166			-0.2917518124894484			
C_1			4.337873469636029			4.201344533206735			-0.1810468998052978			
C_1			3.7592425764705832			3.3509584646106267			1.023170521773733			
C_2			2.7005863719128578			4.427021091768539			4.083996446475581			
C_2			1.0450594661378358			4.457289042941659			4.035931475224094			
C_2			2.937182133867165			4.443315917147181			4.344198263709097			
C_2			3.6988717573275642			6.91920969369887			3.738176423884812			
C_2			2.951706477006282			5.757610163089835			4.3235499960570145			
C_2			2.4545437044909146			5.2492803269482415			3.264735875804177			
C_2			2.4651987021241006			5.8221377054571395			4.656405842176002			
C_2			3.125482931167125			5.03567926430291			5.208409737997152			
C_2			2.8773436883383545			5.899092379652354			3.733994514797914			
C_2			3.565600155457959			6.466166322454881			3.6972964320696846			
C_2			5.123239319515933			4.837880655041048			4.703183020766749			
C_2			3.0827995048411716			4.607624827833101			3.3693453381907923			
C_2			5.187732518452053			3.689231289289811			4.448933844300641			
C_2			3.837077796272632			5.017226219973588			3.933423083515571			
C_2			4.466768598643019			6.087838344422179			4.2145215353499985			
C_2			4.595371634412912			7.016236994940808			4.566870404486992			
C_2			5.5901384260860345			4.391348218596881			5.075558797390775			
C_2			4.907117968772667			5.646113023103711			3.9880034862531537			
C_2			4.869383921778002			4.66429222906831			3.4992602689111845			
C_2			5.788923133373607			4.417195713091944			4.021575432562022			
C_2			5.092343166510448			5.9782970447855845			4.967927126537486			
C_2			6.022975443344666			5.6107465654955675			4.524958146198082			
C_2			5.81816006888529			6.344611602534851			3.8486961165633238			
C_2			4.928907292713205			4.740135952312352			5.403163990309579			
C_2			5.118539184896868			5.89472836273553			3.908292004223923			
C_2			6.006841468824298			4.629512888600341			3.938066622916063			
C_2			6.432829721638252			6.750654466681864			5.131121169605241			
C_2			7.053237241569159			6.463365147011454			4.49509423826232			
C_2			5.70856855796138			5.486359263292746			4.8612707678606375			
C_2			6.600984251648896			5.2739412562739325			4.088864625708922			
C_3			4.402394445477218			3.1883419851802297			10.326637562885924			
C_3			4.4244909492018465			1.6463364236118094			10.654411118804667			
C_3			5.10418119071531			2.66860943704629			10.541041767514228			
C_3			4.689759844439864			1.9228770723709663			9.066098623049063			
C_3			4.944063319009914			2.43694102047322			11.458706422065207			
C_3			4.666153227905345			3.929320822635455			11.204192162851767			
C_3			5.832338019648356			1.7438966082368463			9.558885358822646			
C_3			5.260138198804253			1.928476274438389			10.589596741947632			
C_3			6.006580027444873			1.1756856341835065			10.687115467430107			
C_3			4.408234865745227			2.4213595491395328			9.057125061831707			
C_3			6.0225678365157			1.2579824693008326			11.014053395528213			
C_3			6.081162060845789			2.8232089279402954			11.616185055855324			
C_3			6.59369115187389			2.1113929182284807			11.280312608108211			
C_3			7.655082140258764			1.4876694520146083			11.406949273842802			
C_3			6.976564927742159			2.869661959446644			11.086097472473393			
C_3			5.724115338992605			3.623229481610235			11.539222445755767			
C_3			4.903732595672664			1.443973802188896			9.464233894004701			
C_3			6.008648844859261			2.6554705559608993			10.40227799600521			
C_3			6.257927886738433			1.4763830987470485			10.400718262517234			
C_3			6.639416934575652			3.2653160089887625			10.621177005152582			
C_3			8.288877036038114			2.3255844244027273			10.647362930960035			
C_3			7.711045205798252			0.3856153756398836			10.036119949218428			
C_3			7.910682734085454			0.7157095998514015			11.022744957341553			
C_3			7.379559605109534			3.112780740834216			11.449268242356489			
C_3			6.342959825855066			2.6083404749476915			9.693449242874355			
C_3			7.164191153091057			0.9094456760163607			10.62588622361347			
C_3			6.887722977544773			1.8998946814493274			10.53576304459997			
C_3			7.625325168181047			2.381437281890643			10.94219601183693			
C_3			8.191609723183818			1.564979111997545			11.363669996858055			
C_3			7.798182472003135			3.2933627215646797			11.909633291141116			
C_4			3.773366856544636			0.31893223829129785			14.44994901334155			
C_4			4.542560362956771			-1.2626932700872888			14.807328839408335			
C_4			4.221455826982275			-0.5167750285878492			13.691932508353704			
C_4			4.04003153060146			0.38283353528126973			13.463546799315695			
C_4			3.64038879611266			-0.35656894034330133			13.526989710875391			
C_4			3.8032676745493137			-1.4963508640646326			13.735020199003154			
C_4			3.52859909194544			-1.428363483564821			13.998089176900388			
C_4			4.785168731432694			0.01044496426647275			15.228234934462368			
C_4			4.607827583957101			-0.40936935880369346			15.313751922704082			
C_4			3.6549290756670145			-0.1791470418139547			14.417224118454792			
C_4			5.1296936497087176			0.9081427034348077			14.953375902874537			
C_4			4.3990531232670715			-0.11209686223696912			13.99270927514941			
C_4			5.239973953858575			0.36946461522706564			13.80222305367115			
C_4			5.378928031873273			0.6313617929866744			14.534660117650441			
C_4			7.0960378725878055			0.9151585301202794			14.504613293369488			
C_4			8.239750735836436			-0.38926827553492194			15.451442313059394			
C_4			4.105127319206748			0.6004230752523847			15.115367468475437			
C_4			4.188143317862387			1.2282730931362849			15.479684207280238			
C_4			3.4201234125721682			0.10232066814633112			15.445764277388013			
C_4			4.703653568087021			1.5222010961460573			15.155667098151854			
C_4			4.517696773615637			-0.7491322844839452			14.161022438859293			
C_4			3.714341974512139			0.7297504914030578			14.660601659307794			
C_4			7.848103275471948			1.2686216210070607			15.215006359373273			
C_4			7.556133806416004			1.338316074460759			14.983418150921729			
C_4			7.894665520652126			1.5114569577385433			14.965896801822174			
C_4			7.319365312679251			-0.22087071786104404			16.12759734975542			
C_4			7.303012082760716			1.3161196317510626			16.13976389130564			
C_4			7.297671664919778			0.02024026580546648			15.208647030350853			
C_4			6.33397812911244			0.20833626498246477			14.517252863102591			
C_5			10.198635511520232			-0.13948683135764234			12.857946387681057			
C_5			11.667548021656506			-1.4162928308377953			8.000033185317829			
C_5			9.755817326236786			-1.2748260507191933			7.784839744181233			
C_5			10.690065410010437			-0.9372344288479791			8.979952844729409			
C_5			11.646263978541501			-0.8935778280821693			6.582787514211359			
C_5			9.217312432380282			-3.2711792157905686			5.724432614637222			
C_5			9.660906817820678			-1.4779626199285905			8.13990050299797			
C_5			9.54944495237089			-1.57296660097089			7.469439039944099			
C_5			9.028229245615693			-2.4923248689223323			7.264844057755122			
C_5			10.65737306560745			-1.3467400241280398			9.156046440696832			
C_5			11.533484181964589			0.0872376079701359			8.27880524944459			
C_5			11.66270216252249			-0.5110646522320725			8.346847231978511			
C_5			10.045242858803721			0.01868516498143344			10.08937176501448			
C_5			11.941517808307117			-0.8816584490146391			8.75354910336185			
C_5			10.779635049498454			-2.203750673850994			9.588163594317379			
C_5			12.232182225124005			-0.9829911969856023			9.202345519098959			
C_5			12.072773918539147			-1.3886721326551303			8.752517163727079			
C_5			11.267218839309177			-0.22021131308769495			6.378049140254082			
C_5			11.731759881658771			-0.6388583040414736			7.177720889262005			
C_5			11.259576233759676			-1.8689998054500159			7.724608718731783			
C_5			10.590606675294412			-1.8240956419229175			8.150033207180703			
C_5			12.396551101495916			-0.7296491442152101			7.998857566374115			
C_5			11.66338077321079			-1.6915668221494902			8.032144928881376			
C_5			9.736448633492417			-1.853222553749538			9.626821969934442			
C_5			11.818307306712056			-2.187654700087445			7.944081981363968			
C_5			10.772507517130677			-1.6530787694544222			9.394139715155246			
C_5			12.487151004747279			-0.43774320823878454			9.019790997755969			
C_5			11.41644701601809			-1.4177165896129456			10.060091626429452			
C_5			13.19314285116928			-0.9788661429949488			9.209428435695314			
C_5			11.661994317945222			-0.18980480787590684			9.931956070957312			
C_5			12.73704103507002			0.2757713271191115			10.20922812606137			
148
stepId: 300
C_1			0.3597144004056937			1.5032842968701388			0.14929968982463865			
C_1			0.4909672268554403			2.117841288162797			-0.05800664805020824			
C_1			0.7699899185638029			0.12943306827922124			-1.2107053475965817			
C_1			2.7067004492198055			2.4538639916299876			-0.16842983128737019			
C_1			0.05402731001190585			1.8519353287279319			0.642237794476043			
C_1			1.8351505371534291			0.6033141928890519			-0.04746679590316723			
C_1			0.7964299800196529			0.5652293357932138			0.40746651522781485			
C_1			2.514363674262724			0.9061850172949646			-0.04884555769457457			
C_1			1.1239131282900694			3.152888213183544			0.3710131616587787			
C_1			2.874215237518904			1.1219183522484766			-0.47366538273772896			
C_1			2.8518555574301105			0.43042380540896535			-0.4829651108717694			
C_1			1.094609476222342			1.32621977434276			0.4239731530108994			
C_1			1.8314568489433862			1.6880552618332252			-0.8699368828728392			
C_1			2.7964905189451894			2.7061067917357606			0.0981236432732598			
C_1			1.4514472125905096			2.732906879548855			0.05995282764386907			
C_1			3.2888492675098897			1.4393251406218253			-0.26277154360429905			
C_1			3.5952422294788375			4.654926663046594			0.4429210066627992			
C_1			3.5388049933352517			2.5282997933168323			0.9893133267783492			
C_1			3.3856742979735865			3.186910018405869			0.8059039154752913			
C_1			3.4617097301878443			2.7909543563886414			-0.7346250773276557			
C_1			3.2353837573560944			1.679992927078335			-0.9017427421730233			
C_1			4.3573090542319095			2.988509809801698			0.5125518576569206			
C_1			2.0619604628092976			4.882449897560514			0.793173362291039			
C_1			3.8065234763137448			3.91668482114382			0.5772965298415148			
C_1			4.1732660719939965			4.6162654096869105			-0.6734637278781264			
C_1			2.885457711662309			4.446979046991931			-0.28240508483058413			
C_1			5.102110909491326			4.11260554513534			-0.038020218376575994			
C_1			3.49438020753303			3.3814806853975674			0.0972529293776511			
C_1			11.433216700509512			-2.6850108424940835			7.548156113119562			
C_2			2.1989410596048216			4.625266220490723			5.204456765025282			
C_2			0.875833867090241			4.834254439289479			4.7186361202747795			
C_2			3.090638737101739			4.646378184449903			5.137368766141161			
C_2			3.160200155739608			7.061707283795947			4.698236289486637			
C_2			2.8030604989146837			6.357659854098518			4.940153565686167			
C_2			2.0097201784111074			5.721244343417218			4.825335103496284			
C_2			2.9347277560238196			6.129781542966023			5.71969823104489			
C_2			3.0526804113810675			5.647584827156484			5.533207643176659			
C_2			2.736652355148485			5.506668813775413			4.7837206935198555			
C_2			3.1599835916889005			6.647956414288534			4.666722144039439			
C_2			4.279469471744203			5.518178132349534			5.772678215307875			
C_2			2.1131490960784576			4.909125087743347			3.94098639865989			
C_2			5.3849946071506585			2.908283100604591			5.474578289008593			
C_2			3.149862395640611			5.501799820515099			4.888430575054798			
C_2			3.9263734203831415			7.138299800396759			5.304768023516748			
C_2			4.520112019405327			6.50731818324475			5.723753798112324			
C_2			4.688032890582512			5.266336476913093			6.828451735118769			
C_2			4.477201066653772			6.09595527541757			5.3121579903181715			
C_2			4.30722179037362			4.484740907204373			5.005984206049264			
C_2			4.991134044869208			4.014105195896016			5.256306279101911			
C_2			5.73926901045518			6.13458313846763			6.3686371504984995			
C_2			6.009038995664929			5.94409775406989			5.50692719049348			
C_2			5.533501756639585			7.528167426841705			4.607808753613586			
C_2			4.207075402852066			4.519733786475194			5.906830198459544			
C_2			4.985074268015369			5.653535929158451			5.770198488635589			
C_2			5.42978571127416			4.845557036922099			5.724308356255693			
C_2			5.836313880557419			7.794496438386484			6.314860032452902			
C_2			7.080473167117564			5.947607102418917			6.548889517260737			
C_2			6.207872268700803			5.500560671676428			5.504064873158807			
C_2			6.463549849992005			4.955234361468619			5.045665758879492			
C_3			3.4092770363052254			2.925358177001414			13.38669608421207			
C_3			2.9053695895124063			1.1067841237231377			13.61670526888412			
C_3			4.889356519200099			2.532594463758431			13.120028295556764			
C_3			3.8504818199961854			0.557875717400838			11.743743126650614			
C_3			4.292736380913903			1.7857360573459724			14.140313214010934			
C_3			3.262003639325759			3.37877672687561			13.831984932784609			
C_3			5.200544890909425			1.6176497665904053			12.654041423768522			
C_3			5.434359981043838			1.9947405370445266			13.749651068524473			
C_3			3.9747429174740354			2.0147884832782306			12.183478532318574			
C_3			5.872207210951716			0.4401163904109997			13.516883581225976			
C_3			6.519024432262884			2.211776475400305			14.560142721836918			
C_3			5.634567655707918			1.644787958649435			13.850800356356848			
C_3			7.689065337989676			0.9823342507293656			13.855420314801576			
C_3			6.304556636234393			1.3427489775451749			13.394085624545497			
C_3			4.884837004434397			2.770214641069509			14.279319534460496			
C_3			3.587982991385598			0.4560832720554214			12.222269771645726			
C_3			4.6213528319325805			1.3891305776222944			12.827896589503373			
C_3			6.435187674554492			-0.11474088695705124			13.623958755890735			
C_3			6.105405608923932			2.790400827842424			13.44005587148836			
C_3			7.268955190294743			2.219167470638744			13.525918561774716			
C_3			7.076884022817081			-0.4479710688122353			12.394998536920047			
C_3			7.211634887304451			-1.083658325192342			13.27202596041224			
C_3			5.480294070390085			2.2362681837089187			12.427199559903826			
C_3			5.981281673100456			0.01761900629673925			13.73451127537894			
C_3			7.121163567788406			0.8716170296554148			13.77279927927078			