149
stepId: -1
C_1			1.1			1.1			0.1			
C_1			1.2			1.2			0.2			
C_1			1.3			1.3			0.3			
C_1			1.4			1.4			0.4			
C_1			1.5			1.5			0.5			
C_1			1.6			1.6			0.6			
C_1			1.7			1.7			0.7			
C_1			1.8			1.8			0.8			
C_1			1.9			1.9			0.9			
C_1			2.0			2.0			0.0			
C_1			2.1			2.1			0.1			
C_1			2.2			2.2			0.2			
C_1			2.3			2.3			0.3			
C_1			2.4			2.4			0.4			
C_1			2.5			2.5			0.5			
C_1			2.7			2.7			0.7			
C_1			2.6			2.6			0.6			
C_1			2.9			2.9			0.9			
C_1			2.8			2.8			0.8			
C_1			3.1			3.1			0.1			
C_1			3.0			3.0			0.0			
C_1			3.3			3.3			0.3			
C_1			3.2			3.2			0.2			
C_1			3.5			3.5			0.5			
C_1			3.4			3.4			0.4			
C_1			3.7			3.7			0.7			
C_1			3.6			3.6			0.6			
C_1			3.9			3.9			0.9			
C_1			3.8			3.8			0.8			
C_2			4.1			4.1			0.1			
C_2			4.0			4.0			0.0			
C_2			4.4			4.4			0.4			
C_2			4.5			4.5			0.5			
C_2			4.2			4.2			0.2			
C_2			4.3			4.3			0.3			
C_2			4.8			4.8			0.8			
C_2			4.9			4.9			0.9			
C_2			4.6			4.6			0.6			
C_2			4.7			4.7			0.7			
C_2			5.2			4.2			0.2			
C_2			5.3			4.3			0.3			
C_2			5.0			4.0			0.0			
C_2			5.1			4.1			0.1			
C_2			5.6			4.6			0.6			
C_2			5.7			4.7			0.7			
C_2			5.4			4.4			0.4			
C_2			5.5			4.5			0.5			
C_2			6.1			4.1			0.1			
C_2			6.0			4.0			0.0			
C_2			5.9			4.9			0.9			
C_2			5.8			4.8			0.8			
C_2			6.5			4.5			0.5			
C_2			6.4			4.4			0.4			
C_2			6.3			4.3			0.3			
C_2			6.2			4.2			0.2			
C_2			6.9			4.9			0.9			
C_2			6.8			4.8			0.8			
C_2			6.7			4.7			0.7			
C_2			6.6			4.6			0.6			
C_3			7.3			4.3			0.3			
C_3			7.2			4.2			0.2			
C_3			7.1			4.1			0.1			
C_3			7.0			4.0			0.0			
C_3			7.8			4.8			0.8			
C_3			7.9			4.9			0.9			
C_3			8.0			4.0			0.0			
C_3			8.1			4.1			0.1			
C_3			7.4			4.4			0.4			
C_3			7.5			4.5			0.5			
C_3			7.6			4.6			0.6			
C_3			7.7			4.7			0.7			
C_3			8.6			4.6			0.6			
C_3			8.7			4.7			0.7			
C_3			8.8			4.8			0.8			
C_3			8.9			4.9			0.9			
C_3			8.2			4.2			0.2			
C_3			8.3			4.3			0.3			
C_3			8.4			4.4			0.4			
C_3			8.5			4.5			0.5			
C_3			9.5			4.5			0.5			
C_3			9.4			4.4			0.4			
C_3			9.7			4.7			0.7			
C_3			9.6			4.6			0.6			
C_3			9.1			4.1			0.1			
C_3			9.0			4.0			0.0			
C_3			9.3			4.3			0.3			
C_3			9.2			4.2			0.2			
C_3			9.9			4.9			0.9			
C_3			9.8			4.8			0.8			
C_4			0.3			4.3			1.3			
C_4			0.2			4.2			1.2			
C_4			0.5			4.5			1.5			
C_4			0.4			4.4			1.4			
C_4			0.1			4.1			1.1			
C_4			0.0			4.0			1.0			
C_4			0.2			4.2			2.2			
C_4			0.3			4.3			2.3			
C_4			0.0			4.0			2.0			
C_4			0.1			4.1			2.1			
C_4			0.8			4.8			1.8			
C_4			0.9			4.9			1.9			
C_4			0.6			4.6			1.6			
C_4			0.7			4.7			1.7			
C_4			6.0			4.0			3.0			
C_4			6.1			4.1			3.1			
C_4			0.8			4.8			2.8			
C_4			0.9			4.9			2.9			
C_4			0.6			4.6			2.6			
C_4			0.7			4.7			2.7			
C_4			0.4			4.4			2.4			
C_4			0.5			4.5			2.5			
C_4			6.9			4.9			3.9			
C_4			6.8			4.8			3.8			
C_4			6.7			4.7			3.7			
C_4			6.6			4.6			3.6			
C_4			6.5			4.5			3.5			
C_4			6.4			4.4			3.4			
C_4			6.3			4.3			3.3			
C_4			6.2			4.2			3.2			
C_5			4.7			4.7			4.7			
C_5			4.6			4.6			4.6			
C_5			4.5			4.5			4.5			
C_5			4.4			4.4			4.4			
C_5			4.3			4.3			4.3			
C_5			4.2			4.2			4.2			
C_5			4.1			4.1			4.1			
C_5			4.0			4.0			4.0			
C_5			5.7			4.7			5.7			
C_5			5.6			4.6			5.6			
C_5			5.9			4.9			5.9			
C_5			5.8			4.8			5.8			
C_5			6.1			4.1			6.1			
C_5			6.0			4.0			6.0			
C_5			6.3			4.3			6.3			
C_5			6.2			4.2			6.2			
C_5			4.9			4.9			4.9			
C_5			4.8			4.8			4.8			
C_5			5.1			4.1			5.1			
C_5			5.0			4.0			5.0			
C_5			5.3			4.3			5.3			
C_5			5.2			4.2			5.2			
C_5			5.5			4.5			5.5			
C_5			5.4			4.4			5.4			
C_5			6.4			4.4			6.4			
C_5			6.5			4.5			6.5			
C_5			6.6			4.6			6.6			
C_5			6.7			4.7			6.7			
C_5			6.8			4.8			6.8			
C_5			6.9			4.9			6.9			
149
stepId: 100
C_1			1.400889462893138			0.6523415147468251			-0.10794425968783895			
C_1			1.220352515093852			1.4859619504035002			0.6379734166868373			
C_1			0.6267712193860768			0.9342110429822296			0.4566289617121595			
C_1			1.074205796266448			2.2747397690790385			0.5439548134224901			
C_1			2.4051108293195			0.4567645374222962			0.32517650761326705			
C_1			1.357461906773774			1.2323127752791798			0.6763741375074501			
C_1			2.672191177344193			1.9981049387906755			0.2582357164249834			
C_1			1.8995152734900347			0.7248050805272742			1.0232152325136			
C_1			1.8198790039849573			1.424279497470326			0.4106206302568042			
C_1			1.4429505009457526			1.4265465452171437			-0.7182351212005951			
C_1			2.2409525778468438			2.3661508800664466			-0.16867325503324318			
C_1			1.3596819083368907			2.1819429734698415			-0.3243812721799972			
C_1			2.1639350254736787			2.6728322430204936			1.0984372428874802			
C_1			2.5057108223949003			1.6809147095837331			0.2317906518634749			
C_1			2.221953384028019			3.332824043110449			0.2478859190479285			
C_1			1.9629061060300264			2.6686047653089426			0.5578094959233985			
C_1			1.8573635145424063			4.371112294455462			-0.05617805665020988			
C_1			2.887447832347559			3.776283130761341			1.2451758037102219			
C_1			2.419908616722509			1.8176920238315264			0.7313069244557344			
C_1			2.873278720714016			3.0041636952653232			-0.10109035277324546			
C_1			2.662449864621303			3.1058576693724076			-0.025164334464944427			
C_1			3.086268658705593			3.3100198596432184			0.4932036437410906			
C_1			3.7415773523384908			3.5546571047670263			0.5236529186393204			
C_1			3.7208371454963203			4.399847696238423			0.32653765295196835			
C_1			3.614644649219715			2.221342831899205			-0.5952863630220273			
C_1			3.8417159880038145			2.8007565666033516			1.0787036357055728			
C_1			4.061844577390333			2.8663898529608747			0.24098089952200982			
C_1			5.176949120618294			3.5549679992989347			0.3874487880579128			
C_1			3.634646513109996			4.648600681903006			0.8522445261092052			
C_2			3.9571558187308487			5.412508848784663			1.61353117500327			
C_2			3.0494990719680275			4.82542244866692			2.4974485719257813			
C_2			3.5476604138773973			4.899168612028607			3.7224270579235683			
C_2			2.3494774201616213			5.421863967246181			1.938865015515905			
C_2			4.03812237188257			4.4123745505463425			2.3949722656760133			
C_2			3.846655360659669			6.280479998236398			2.4108612410973853			
C_2			4.088062150768907			5.794985964634055			3.043203508449285			
C_2			3.8466458917250366			6.055901530893531			3.2307677815392526			
C_2			2.990970662377889			5.293553125543408			2.45774329749255			
C_2			4.512578457862744			5.394595257602626			2.5087929622126506			
C_2			4.753977471398809			4.813208445919031			3.125122237126397			
C_2			3.965155647489119			4.200193589943592			3.025340977710998			
C_2			4.1894086128674815			4.34402763216475			1.9549996367662412			
C_2			4.479854663139954			5.113743276641656			2.8325010521403367			
C_2			5.307429078749853			5.191170619220374			2.3922580101764033			
C_2			5.123893881860646			3.630848088859312			2.493374176110114			
C_2			5.256085474490217			6.476303732015372			3.13059048954734			
C_2			5.535779475191726			4.915658231929636			2.0132995324383423			
C_2			5.325779124160841			4.8595514414847445			1.801711153007875			
C_2			5.6862623600176425			5.803264711849307			3.0038508542449494			
C_2			5.851915557337703			4.8520837830949155			3.563847542888767			
C_2			5.474511345265405			5.7816489182642385			2.8985531717938646			
C_2			6.727191129896731			5.514152769571306			1.8633388979235614			
C_2			5.48609398119984			4.591885171475883			3.596810834329019			
C_2			5.916292880213122			4.228938843746396			2.7783911298526336			
C_2			6.413679308569961			5.247578752131583			3.220565843386971			
C_2			6.517178604243779			5.817093158237113			2.880675786734152			
C_2			6.16808343495537			6.019623046217809			2.6577942377847195			
C_2			6.196212673187013			5.136780075632093			3.0603945993470596			
C_3			3.3554095116346234			3.7639158922940865			4.882615588324068			
C_3			5.703642791593684			2.1384302452372217			7.293251601737521			
C_3			5.146640332149217			3.5468693952215387			6.190823436482122			
C_3			5.1241266276469375			3.2982263876882096			5.953913821552595			
C_3			5.009561603067149			2.2993971177542507			4.913592403462646			
C_3			6.3587132085646045			3.093924956482511			6.991182603046529			
C_3			6.670169395642375			4.148911621997039			7.0037923727046545			
C_3			6.183194899107249			3.3898209403652566			6.090424336765767			
C_3			6.317993382428918			1.624662904558683			6.031375065782766			
C_3			6.155427607345435			2.3998481699667598			6.67944331395518			
C_3			5.248098069983674			4.020880470370549			6.705450808186239			
C_3			5.557468176627157			3.0836659930483563			6.961181669247395			
C_3			6.2424189197388635			3.1024311864221272			8.544944747786094			
C_3			6.703053584578702			2.3712836767984715			7.449392880597681			
C_3			7.4420644530439315			3.841716148547439			6.8438649071038515			
C_3			7.380974608681312			3.794423517106669			6.817470888428888			
C_3			7.295823178278194			3.9188361680257504			7.6177310783734855			
C_3			6.612434314065965			2.396287529174948			5.395959420101339			
C_3			6.691054223337701			2.6145995552577896			6.367564307420841			
C_3			6.77461386270978			3.378436286617757			5.631719845165518			
C_3			7.251492169949213			2.947188581908488			6.7157661450960555			
C_3			8.975625446547197			2.9603687458793373			6.616254563080472			
C_3			7.529594463054121			3.3266101192335396			7.2418809141355895			
C_3			8.164602942388273			4.130472408895897			7.066447883813384			
C_3			8.779544082220879			3.7418519299858763			7.15475074966091			
C_3			7.38182014567932			3.1833283645120645			6.214185290207336			
C_3			7.500299573197201			2.3070668371802117			5.8506805112821905			
C_3			8.833161649199626			2.4953755515511116			6.542434525685644			
C_3			8.038395234427533			2.9567746123009626			6.2665037683849345			
C_3			9.393176140409912			3.0664702865661155			7.445051537271401			
C_3			9.510995180570095			3.2546693010759884			6.597558371659549			
C_4			3.072641917207386			1.0372388929180918			8.784360669789471			
C_4			1.7880582105543523			0.9726380966538195			9.3091025774571			
C_4			2.099902762779156			2.3855306413154787			9.325334131476641			
C_4			2.4940148074675017			1.6810418861201573			8.79503337906209			
C_4			2.1890629117104847			0.9071261864261353			8.866111844867937			
C_4			2.1633236964725926			0.7733906488416331			8.57200203272098			
C_4			2.322727221423982			1.64109942873028			10.141999580001926			
C_4			2.4449573898147174			0.978122796002314			10.169479166873407			
C_4			1.2059307541562245			1.2948487354596387			9.64249800971178			
C_4			1.653873655045579			2.020635029594623			10.423553956936788			
C_4			3.1673664602804092			2.297888485854721			8.510380801064231			
C_4			2.5594940994222175			2.9809316793301948			9.886698976773703			
C_4			3.185919374928608			2.213203045754803			8.4459994187444			
C_4			3.848315029881204			2.0683323879358038			9.555866534652909			
C_4			6.424517278157305			1.3487646844056955			10.516889559634537			
C_4			6.992857438288644			2.208029107753186			9.804456380228782			
C_4			3.611394738355745			2.095903391595033			10.013862753848407			
C_4			2.95869464857609			2.2964769758770327			10.587787845332215			
C_4			3.5813695445229112			1.55532420888001			10.356161148306185			
C_4			2.9919342826461905			2.4395144304085297			10.3257623231093			
C_4			2.65415677143302			2.290257832190025			10.033349157631216			
C_4			2.434971028385307			0.68887912011659			9.592862560265955			
C_4			7.5711423971915375			3.9137636098506383			11.831097881896264			
C_4			7.304317951844409			3.247356581051758			11.145040683950215			
C_4			7.755856924447963			2.736418216955407			10.957547790955902			
C_4			7.123135547295473			2.4846105970329906			10.251421342801533			
C_4			7.550856427996583			2.279215479564857			10.452089513616784			
C_4			7.0309355750361675			2.3792690759754427			10.29241821644666			
C_4			6.177395636037063			1.9396175415753654			10.890641139079973			
C_4			6.974284492361609			1.6882708921310683			10.417348052091212			
C_5			7.550314083961386			0.9058094750032063			6.86327069766203			
C_5			7.243999559250895			1.0820856574819653			6.176856844840989			
C_5			8.143840543656214			1.158661909552632			5.461855757310175			
C_5			9.186871384467688			1.0803189673892992			6.004693306212115			
C_5			8.328767706267485			0.3652511650870126			5.693633357157046			
C_5			7.706647196320577			0.7468354038242215			6.459755913509777			
C_5			7.479731908532435			-0.48038343112130666			5.386566015317396			
C_5			7.871125235805316			0.40259324453351475			5.607629196336854			
C_5			9.56681700982384			0.5683862669715116			7.981138681451707			
C_5			8.883197750060942			1.7079063120345348			8.093728411219356			
C_5			10.203660309364837			2.105583782606135			6.649737298345254			
C_5			9.352526623570803			1.8838193699440118			7.536750105378888			
C_5			10.732859540483652			0.7926653869382541			7.78729167837679			
C_5			9.158390401457881			0.9711652823495895			6.816259849149427			
C_5			10.553016595405515			1.859276369551806			6.89206421672526			
C_5			9.765027157198148			0.5545869871155141			7.465835389559057			
C_5			8.387694281802835			1.6117132773207994			6.7581724064318225			
C_5			8.292267494344221			1.8382018000788463			6.8362063419837655			
C_5			8.233084781721416			0.4588271201746337			6.665254128291612			
C_5			8.524991486979458			-0.007556341168970579			6.829409099660416			
C_5			8.670083784018784			0.5191494721535287			7.406143484095351			
C_5			9.117752073670268			-0.1938101447655606			5.996556722467326			
C_5			7.982226804362519			1.3669187884909357			7.454854931610359			
C_5			9.630713988000124			0.5983887046708865			6.957013198653449			
C_5			7.9962848208509785			0.7663012897696158			8.12504717396984			
C_5			9.831414880922738			1.3146787178574837			8.065146678752603			
C_5			9.294789964824865			1.924731440404385			8.866026647179444			
C_5			9.635020523742218			1.1378039209831998			9.010187777849177			
C_5			9.935111440394714			1.5664797657562253			7.292173947981192			
C_5			10.685182122514385			1.8550711383384082			7.7090326820570505			
149
stepId: 200
C_1			1.8218635107100252			0.7665966278218924			-0.2626445794912185			
C_1			0.6673254743430329			1.6764378944140301			0.2254091424561849			
C_1			0.9857001287703537			1.9642969014549676			-0.10272593548957985			
C_1			1.0614352109869531			2.5282234797241627			0.5337135728082915			
C_1			2.207845316057036			0.0964748314788692			0.07689958669523368			
C_1			0.6236550875972648			0.810045391112769			0.610905925122997			
C_1			3.145801746686972			1.7997902340613259			0.44477799121956885			
C_1			2.618274636960893			0.16642483461711027			0.960453350901483			
C_1			1.9293705368083074			1.36110372226285			0.9630223112008198			
C_1			1.9924363253277677			1.3098891479024077			-0.4754658739600956			
C_1			1.5847466067427864			2.4936496781011974			-0.14864363171195644			
C_1			1.2348357159232441			1.847340952905562			-0.23609974614661622			
C_1			2.8710364627598355			1.981955812759565			0.6722555561393527			
C_1			2.2524541534849054			2.1413042009283343			-0.6470440184190095			
C_1			1.7126398442131845			3.464126791240597			-0.31411397748914605			
C_1			0.8643504756186603			2.0375158877961734			0.8106227828702389			
C_1			1.8440463060089172			4.193703777621866			-0.25606522362251344			
C_1			2.874264124431857			3.4732755944101834			0.5982679644739537			
C_1			2.0122862860759274			1.2856016395434593			0.851863385520579			
C_1			3.1098289089257296			2.9872901685098276			0.07461764713015688			
C_1			2.7766779159906676			3.0719316735494675			-0.211241583031839			
C_1			3.786364872440218			3.108156367696078			0.9238085968483124			
C_1			3.836879650580396			4.233102670807661			-0.0516907910069475			
C_1			4.920030524755534			6.100563429140032			1.1746275257515755			
C_1			4.098811245446512			2.377129439990137			-0.2110230084522388			
C_1			3.3331404305087062			2.84438825212155			0.4027962662335172			
C_1			4.117511567466786			2.163696418413382			0.7448909114356446			
C_1			4.942793885210972			3.9522779729375257			0.5253272921307551			
C_1			4.3277355316029675			4.782036673063603			0.08268491259841379			
C_1			11.899057431396951			-0.260667119485326			6.053005495070065			
C_2			3.2980567422776788			5.620019405053192			2.7678878450818067			
C_2			2.6205467404336633			4.973600484333838			4.099842062388176			
C_2			3.698716279516333			5.40496204253187			4.977959792422727			
C_2			1.8601463033233345			5.831448669660603			3.9264183044516296			
C_2			4.765037238628963			5.0277157558883			3.2568915925130297			
C_2			3.44604700968612			6.8248345564649995			3.859028893270807			
C_2			4.12671971992337			6.244622623489117			5.551675144795964			
C_2			3.507859020471746			6.726993908282158			3.396274412593233			
C_2			2.95481499439712			5.585977992181021			3.7838156633531144			
C_2			4.548529464691865			6.4687536225926685			4.4168228582187075			
C_2			3.8863078715907715			4.967117221632252			4.6893737053577995			
C_2			3.8965159904251117			4.426458662289855			5.042114941221073			
C_2			3.721483768023859			5.248264788521221			3.395119415526901			
C_2			4.113823593393571			4.5937636751688125			4.407880540902872			
C_2			5.061601366949737			5.6169961844785945			4.023588328960267			
C_2			5.247736190075219			3.978082564673318			4.078956450566284			
C_2			5.249550242554917			7.509504049083438			4.400310852266203			
C_2			5.316265343224198			6.408292105792235			3.613757059323088			
C_2			4.9695211447454			5.014089192993899			4.2146645007333605			
C_2			5.546213585501353			6.279399855613788			4.696501198085371			
C_2			5.583125954209698			5.8379453055134			4.774934367179496			
C_2			4.746771509061708			6.1908881415939865			4.157805086030446			
C_2			5.89811454516678			6.065382400482615			3.5155314778424094			
C_2			4.321169278843106			4.307577011682866			4.895729117079533			
C_2			6.135244154194308			3.731755153609661			4.437415968782142			
C_2			5.232214504050865			4.881976630174218			5.005317510616062			
C_2			6.261614116062888			6.394377703005106			4.1774338704534495			
C_2			6.613940867681122			6.007392060868206			4.390135244201904			
C_2			6.165712744022281			5.692641973412054			4.383524764971289			
C_3			2.423076458931088			2.1148499208154887			8.917179268083679			
C_3			4.961261979127709			1.1571771962813295			11.828093025474285			
C_3			4.5296105953429455			1.6960685689989066			10.34444586384378			
C_3			4.088718023665154			2.2688638095528266			10.915518282997578			
C_3			4.834885087897196			2.205000827204704			9.865605363777739			
C_3			4.890117424088492			2.788713082227812			11.48002990986316			
C_3			5.809052174971524			2.8388223473020604			11.48305181467165			
C_3			5.6811751126474235			1.8692538891318533			10.225593074398766			
C_3			5.0044510131908435			0.3795637066120759			10.061135848860195			
C_3			5.306925966105422			1.1548294996303505			10.543419570999003			
C_3			4.229340844401483			3.4572169941387085			11.072883637362036			
C_3			5.721380901370425			1.6677117791178881			11.241410208278792			
C_3			5.560270552954327			1.6061839777001303			12.349401976800547			
C_3			4.706515560229726			1.3175335533994723			10.815652575727844			
C_3			6.589841366139335			3.6572423768705087			11.154924781063102			
C_3			6.557427182036197			2.7832442945501006			11.28638977783854			
C_3			5.643099990961035			3.4402714953493807			11.704907995140951			
C_3			5.567787219770273			1.5824520437935226			9.266206446307706			
C_3			5.122289235572033			1.6896417227305207			10.220577360760357			
C_3			6.146912186241881			2.140639557613435			9.914158099523348			
C_3			6.7994893909125205			1.6779836711810026			10.782016742814667			
C_3			7.4053222862759815			2.575129486370035			10.394883921659186			
C_3			6.140877859084881			2.251835337405797			11.44824764921152			
C_3			7.090831000288516			3.0350063322504877			10.94413962652704			
C_3			8.011858082693509			3.0601685182878464			10.805011943896224			
C_3			6.340747124902357			3.2777453236286744			10.219008064573789			
C_3			7.021089322659601			0.8915544973278647			9.851156708273598			
C_3			7.126884628634666			1.0703400699553711			10.49138108330024			
C_3			7.229058515938037			1.84533430358986			10.141189258677969			
C_3			8.994110283242664			1.991481786222915			11.831317978650869			
C_3			8.773272906078416			1.6392097769925718			10.702902195102281			
C_4			4.106839824729257			-1.156660117803322			13.74249425595623			
C_4			3.2358400084848014			-0.20655521479059794			14.660080785712914			
C_4			4.351951388027097			0.4837932383040139			14.826022234637453			
C_4			4.701891836005442			-0.8931660605079024			13.838291359328236			
C_4			3.8451491480199147			-0.7320500413097264			13.346836310289628			
C_4			3.381803363641608			-1.323398970637633			13.59292279898788			
C_4			3.2723533726334075			0.849500551653782			14.779265120843366			
C_4			4.0157477442968155			0.13410850265713853			15.372217153870064			
C_4			2.8884046755642916			-0.3873284784602642			14.697221531549335			
C_4			3.070100098440424			0.006770383638347351			14.96542960729438			
C_4			4.621708116300234			0.9876265500546748			13.774270046992106			
C_4			4.2907313354203245			1.4565096092436614			15.326448024514235			
C_4			4.846456924581191			0.7077321609160884			13.507558505353273			
C_4			5.336447202503036			0.05786679827125619			14.460225840829771			
C_4			7.057782025436933			-0.28136521000765774			15.192918273537147			
C_4			6.5398867522109185			1.0978634543091144			14.831944707258954			
C_4			5.493078266423613			1.1683909387834925			15.04388278275801			
C_4			4.202782901122553			1.4408146655887242			15.895520696220348			
C_4			5.387786048235849			-0.7699128971270223			14.629196918213891			
C_4			4.42624563641524			0.2604621014170401			15.370460662778877			
C_4			4.647004452880993			0.21209881664849697			15.045368578264737			
C_4			3.9110151601991205			-1.0243314805707018			14.70807063698544			
C_4			7.610680665134465			2.4108105177009658			17.119900758599417			
C_4			7.823358780298935			2.5308327876266885			15.943331617561704			
C_4			7.703914264607517			0.6183000199980866			15.80501280230728			
C_4			7.613691074511253			1.964841437516459			15.7205857451364			
C_4			7.413205169968777			0.40495347415874927			17.07764764311233			
C_4			7.165452463194405			1.6901244888816096			15.645783012315146			
C_4			7.072872752097964			0.700262300557766			15.808373290242073			
C_4			7.580950714991171			0.446898663553814			14.913233471538584			
C_5			9.954167220235899			-1.6210094673084399			7.820771618167516			
C_5			9.678559571913915			-1.763100293946843			7.4878646854903215			
C_5			10.676823612175209			-0.4263554950875694			6.509909905034611			
C_5			11.601817289775305			-1.850596594625746			7.110158515142826			
C_5			10.230544680355436			-2.3062791111104564			7.069832744610741			
C_5			9.889051370595357			-0.8928468220839502			7.409053663664331			
C_5			9.976712642337526			-2.4488932498310247			6.1235805283655305			
C_5			10.526380882481705			-2.2430833453143184			6.625903019940983			
C_5			12.282318999748005			-1.594015253402394			9.028229565944153			
C_5			10.566708020343613			-0.6214586034918796			9.96934412805487			
C_5			12.294702871220032			-0.5429818177644646			7.285733078192693			
C_5			11.400627087558428			-0.805753403990784			8.68543845586884			
C_5			11.09012344514061			-1.1735389371139457			8.13301687034995			
C_5			12.871788081817034			-1.224200959308441			8.280585758329945			
C_5			11.584071448968766			-1.8842674759152478			8.194607606041972			
C_5			11.057247042250893			-0.6825783939666428			8.010960562893082			
C_5			11.381974933864553			0.10650867896983746			7.651980858180757			
C_5			10.820838612593182			-1.7308791203804115			7.5433085754490765			
C_5			10.844539509207436			-2.499194759932765			8.217299373370881			
C_5			9.796494168889405			-2.255104482304653			8.99647122825826			
C_5			11.47459668722303			-2.964656226744337			7.358256784626162			
C_5			9.489302850358273			-1.1427579125347205			8.784347791716245			
C_5			12.158285662367886			-1.7657641135168867			7.180836916697677			
C_5			9.79532081169811			-1.7547137742390255			9.492020845490055			
C_5			11.550857801874676			-0.802590691184192			9.648567991071898			
C_5			12.141333504082517			-0.3526028960000023			9.909084245381033			
C_5			11.171660178492873			-1.0439077962582182			10.615654821332772			
C_5			11.512431997197528			-0.425809643554852			8.801705857098373			
C_5			12.759318893519973			-0.4433718177630457			8.6878341619932			
149
stepId: 300
C_1			1.2889136379382706			-0.09530166172512594			0.08804246405197562			
C_1			0.9676371918579013			1.3762322597759913			0.49681137566498557			
C_1			0.3066511386233892			1.4402096192728502			-0.13328407447579432			
C_1			1.13403603737212			2.626273735099948			-0.22653119939134939			
C_1			2.1867627608711007			0.23902045769589114			-0.0027499548135325744			
C_1			0.5525999703877958			0.4552747077283212			0.9018152000939818			
C_1			2.908619759232683			1.034445215854634			0.3897939261887369			
C_1			2.2505774237933824			-0.11980341064837453			0.866989795594119			
C_1			1.8040206551182767			1.4958817497998673			0.707538437496054			
C_1			1.944468065204939			1.5449327502920693			-0.34245588296070445			
C_1			1.6955237243270047			2.7837300866646224			0.09607249457335551			
C_1			1.174507907025889			2.0570668066315836			-0.23757534060986907			
C_1			2.938042358535314			2.095108331234137			1.0221969635057724			
C_1			3.3903499061730327			2.3036450795043746			-0.3439945967620385			
C_1			1.5424943795668078			3.5974315227942197			-0.7381084699099595			
C_1			0.09446541349076568			2.0244499844918904			0.9500374612786991			
C_1			1.644417767503264			4.2308663421719075			-0.45136053732851883			
C_1			2.30453578206662			3.7376646627746757			0.13525568906958302			
C_1			1.7801152169039092			1.1561671274781546			1.4217240274152525			
C_1			3.0399006973929477			2.615303355876316			-0.38633966843257944			
C_1			2.372184472810268			3.00094949167312			0.6588706499433298			
C_1			3.82367587846176			3.4045503992402724			0.6890584945134358			
C_1			3.890880323676128			3.58207108621093			0.24574621639244956			
C_1			5.542536457130085			6.704390969714422			0.6619310316616043			
C_1			3.5339165384575146			2.537769902809042			-0.8137489514957903			
C_1			3.821398521939186			2.7324668377397643			0.18308234710789736			
C_1			4.42357167930278			2.482668086282565			0.47039198337201305			
C_1			5.489995908362595			4.2347371890444405			0.4048472781686393			
C_1			4.404886650228988			4.926581990547962			0.45549565127849245			
C_1			10.808226635115922			0.3863939500862532			4.394845496343083			
C_2			3.091020436457745			5.853384811865863			3.7988871261271897			
C_2			2.453588509722791			5.0912331614295105			4.7719574287655755			
C_2			3.1236238536627208			4.930461292128993			5.834327614932898			
C_2			2.0991229446689394			5.424036887929875			5.212857952330305			
C_2			4.709623141053989			5.6866720586076305			5.139317697992395			
C_2			3.4973768474542246			6.859465352839256			5.1250711755949725			
C_2			4.218276939322395			7.152085154331749			6.129125303363587			
C_2			3.1031036380121937			6.996501289402613			4.325571717152008			
C_2			2.849143478852348			6.47981517856725			4.725918419986272			
C_2			3.7982339420064735			6.66697989805351			6.25538928179014			
C_2			4.338865150607058			5.769794403116106			5.712221698632959			
C_2			4.84833286194835			4.325816146889958			5.476661413144986			
C_2			3.0395801114620244			5.389730864949703			3.9043720313203187			
C_2			3.5182340369026726			5.231398854428481			5.382052194938416			
C_2			4.884350976328334			5.9189862740555075			4.528583393431742			
C_2			4.724468047472979			4.0630006490644766			5.68495540113948			
C_2			4.84396327273391			8.460447404466821			5.158654516765938			
C_2			5.2478382107412465			6.620530149953783			4.76646759403432			
C_2			5.1705732524920105			4.981755761248899			5.41688918069289			
C_2			5.0324703829544335			6.8105675122700315			5.245054911841426			
C_2			5.695487862262493			5.352412935130195			5.905932912634622			
C_2			4.950626792648568			6.219421776490211			5.626629117213445			
C_2			5.825304765835871			6.379404554926008			4.845675586113403			
C_2			4.187140544509212			4.643428140922147			4.875374485296747			
C_2			5.467584343785393			3.750660041479005			6.015086119358399			
C_2			4.738579124339979			5.68880745804519			6.536067082006665			
C_2			5.93254294361226			6.841020457197014			5.049743522017439			
C_2			6.586223420363946			6.708042811485532			6.18862391830732			
C_2			5.986073298203834			4.901563783804587			5.2209265935359195			
C_3			1.7674969185531635			1.1754013768827503			11.655621155418197			
C_3			4.458467521112617			0.23434392370014068			14.796485749025987			
C_3			4.415003392844943			1.3897912013350584			13.125543802396919			
C_3			3.7115950578257166			1.5794675510661098			13.92184224563543			
C_3			4.004782716120126			2.0120306506021115			12.550673860758668			
C_3			4.105401595337207			2.431812079655357			13.944563788908233			
C_3			5.502045272624114			2.3075265115334025			14.502530331011567			
C_3			4.828459194733603			0.7857594097650688			12.95657187015984			
C_3			4.497158340604078			-0.9487904835376992			12.1902391387375			
C_3			4.8637563217115884			-0.19057897410684121			13.311834131069789			
C_3			3.3568335799962528			2.623285178039006			13.434889106081517			
C_3			5.164127871075404			0.921144274566527			14.75904684589064			
C_3			4.614085295006662			1.1726735859965358			14.624658060426748			
C_3			3.6290014092238803			0.8919215207479166			13.508480989691346			
C_3			5.666294626138073			3.385607843731799			13.719206949050402			
C_3			5.994846043857419			1.6621703002286021			14.038795582203427			
C_3			4.930866366441232			2.95649627369154			14.476497022046983			
C_3			4.923854038098211			0.5630340504440937			12.011221523857992			
C_3			4.99422950699484			1.4868251163054598			13.763866431070321			
C_3			6.0527951326808225			2.0276030835503094			12.734489449569887			
C_3			5.469818522555682			1.7005675370848918			13.500053690369988			
C_3			6.861953884923342			1.172229618656611			13.616202479874694			
C_3			5.763357469457113			1.8778283613218034			13.331086283052844			
C_3			6.509437469941592			2.024430630894364			14.36497311055272			
C_3			7.66421044253323			2.8094736670677283			13.895944672400425			