149
stepId: -1
C_1			1.1			1.1			0.1			
C_1			1.2			1.2			0.2			
C_1			1.3			1.3			0.3			
C_1			1.4			1.4			0.4			
C_1			1.5			1.5			0.5			
C_1			1.6			1.6			0.6			
C_1			1.7			1.7			0.7			
C_1			1.8			1.8			0.8			
C_1			1.9			1.9			0.9			
C_1			2.0			2.0			0.0			
C_1			2.1			2.1			0.1			
C_1			2.2			2.2			0.2			
C_1			2.3			2.3			0.3			
C_1			2.4			2.4			0.4			
C_1			2.5			2.5			0.5			
C_1			2.7			2.7			0.7			
C_1			2.6			2.6			0.6			
C_1			2.9			2.9			0.9			
C_1			2.8			2.8			0.8			
C_1			3.1			3.1			0.1			
C_1			3.0			3.0			0.0			
C_1			3.3			3.3			0.3			
C_1			3.2			3.2			0.2			
C_1			3.5			3.5			0.5			
C_1			3.4			3.4			0.4			
C_1			3.7			3.7			0.7			
C_1			3.6			3.6			0.6			
C_1			3.9			3.9			0.9			
C_1			3.8			3.8			0.8			
C_2			4.1			4.1			0.1			
C_2			4.0			4.0			0.0			
C_2			4.4			4.4			0.4			
C_2			4.5			4.5			0.5			
C_2			4.2			4.2			0.2			
C_2			4.3			4.3			0.3			
C_2			4.8			4.8			0.8			
C_2			4.9			4.9			0.9			
C_2			4.6			4.6			0.6			
C_2			4.7			4.7			0.7			
C_2			5.2			4.2			0.2			
C_2			5.3			4.3			0.3			
C_2			5.0			4.0			0.0			
C_2			5.1			4.1			0.1			
C_2			5.6			4.6			0.6			
C_2			5.7			4.7			0.7			
C_2			5.4			4.4			0.4			
C_2			5.5			4.5			0.5			
C_2			6.1			4.1			0.1			
C_2			6.0			4.0			0.0			
C_2			5.9			4.9			0.9			
C_2			5.8			4.8			0.8			
C_2			6.5			4.5			0.5			
C_2			6.4			4.4			0.4			
C_2			6.3			4.3			0.3			
C_2			6.2			4.2			0.2			
C_2			6.9			4.9			0.9			
C_2			6.8			4.8			0.8			
C_2			6.7			4.7			0.7			
C_2			6.6			4.6			0.6			
C_3			7.3			4.3			0.3			
C_3			7.2			4.2			0.2			
C_3			7.1			4.1			0.1			
C_3			7.0			4.0			0.0			
C_3			7.8			4.8			0.8			
C_3			7.9			4.9			0.9			
C_3			8.0			4.0			0.0			
C_3			8.1			4.1			0.1			
C_3			7.4			4.4			0.4			
C_3			7.5			4.5			0.5			
C_3			7.6			4.6			0.6			
C_3			7.7			4.7			0.7			
C_3			8.6			4.6			0.6			
C_3			8.7			4.7			0.7			
C_3			8.8			4.8			0.8			
C_3			8.9			4.9			0.9			
C_3			8.2			4.2			0.2			
C_3			8.3			4.3			0.3			
C_3			8.4			4.4			0.4			
C_3			8.5			4.5			0.5			
C_3			9.5			4.5			0.5			
C_3			9.4			4.4			0.4			
C_3			9.7			4.7			0.7			
C_3			9.6			4.6			0.6			
C_3			9.1			4.1			0.1			
C_3			9.0			4.0			0.0			
C_3			9.3			4.3			0.3			
C_3			9.2			4.2			0.2			
C_3			9.9			4.9			0.9			
C_3			9.8			4.8			0.8			
C_4			0.3			4.3			1.3			
C_4			0.2			4.2			1.2			
C_4			0.5			4.5			1.5			
C_4			0.4			4.4			1.4			
C_4			0.1			4.1			1.1			
C_4			0.0			4.0			1.0			
C_4			0.2			4.2			2.2			
C_4			0.3			4.3			2.3			
C_4			0.0			4.0			2.0			
C_4			0.1			4.1			2.1			
C_4			0.8			4.8			1.8			
C_4			0.9			4.9			1.9			
C_4			0.6			4.6			1.6			
C_4			0.7			4.7			1.7			
C_4			6.0			4.0			3.0			
C_4			6.1			4.1			3.1			
C_4			0.8			4.8			2.8			
C_4			0.9			4.9			2.9			
C_4			0.6			4.6			2.6			
C_4			0.7			4.7			2.7			
C_4			0.4			4.4			2.4			
C_4			0.5			4.5			2.5			
C_4			6.9			4.9			3.9			
C_4			6.8			4.8			3.8			
C_4			6.7			4.7			3.7			
C_4			6.6			4.6			3.6			
C_4			6.5			4.5			3.5			
C_4			6.4			4.4			3.4			
C_4			6.3			4.3			3.3			
C_4			6.2			4.2			3.2			
C_5			4.7			4.7			4.7			
C_5			4.6			4.6			4.6			
C_5			4.5			4.5			4.5			
C_5			4.4			4.4			4.4			
C_5			4.3			4.3			4.3			
C_5			4.2			4.2			4.2			
C_5			4.1			4.1			4.1			
C_5			4.0			4.0			4.0			
C_5			5.7			4.7			5.7			
C_5			5.6			4.6			5.6			
C_5			5.9			4.9			5.9			
C_5			5.8			4.8			5.8			
C_5			6.1			4.1			6.1			
C_5			6.0			4.0			6.0			
C_5			6.3			4.3			6.3			
C_5			6.2			4.2			6.2			
C_5			4.9			4.9			4.9			
C_5			4.8			4.8			4.8			
C_5			5.1			4.1			5.1			
C_5			5.0			4.0			5.0			
C_5			5.3			4.3			5.3			
C_5			5.2			4.2			5.2			
C_5			5.5			4.5			5.5			
C_5			5.4			4.4			5.4			
C_5			6.4			4.4			6.4			
C_5			6.5			4.5			6.5			
C_5			6.6			4.6			6.6			
C_5			6.7			4.7			6.7			
C_5			6.8			4.8			6.8			
C_5			6.9			4.9			6.9			
148
stepId: 100
C_1			1.574467386575664			-0.06535531494964003			-0.29799047781244536			
C_1			0.9592812119552999			2.1141842410395015			-0.14018175802329727			
C_1			0.5193538024113504			1.5551466093088504			0.04769468191415422			
C_1			1.6264672884414728			0.8063106727835498			0.22843549065485078			
C_1			1.1366611519307248			0.9556997508924452			1.0649226105807894			
C_1			2.0660341203148844			0.6707207331822933			0.34705247966525343			
C_1			2.2268241395769865			1.9310332205499356			-0.3233639820989902			
C_1			2.0680282882227603			1.1614571168366277			0.8123466867929086			
C_1			1.8301690067082277			1.2284781030948533			-0.5982093836624982			
C_1			2.7144735518949488			2.6360492356876266			0.005422429457402292			
C_1			0.7966976164710912			2.712233291522569			-0.08943032124245594			
C_1			1.9789750732049423			2.7026915021618714			0.2508876689705701			
C_1			1.2288895218662688			2.9491996692835247			0.332857589608516			
C_1			3.206908069617364			1.6290769901461553			0.6891590444637834			
C_1			2.4702946689831817			2.072163474711477			0.1789809955592734			
C_1			2.58095473483301			2.2019347272709147			1.380950528073469			
C_1			3.4616996575272583			2.125306645489625			1.138206753026611			
C_1			2.737171981529453			2.918851545266571			0.947360009289561			
C_1			3.299527939655043			3.148774305697702			0.3261645302220451			
C_1			3.346536640698374			3.190972575145415			-0.05061535787751982			
C_1			3.56947952415456			4.133405803655958			0.6111138323263253			
C_1			2.384674189210214			2.3339172337395886			1.1466418984477957			
C_1			2.9432150524858676			3.636494250996534			-0.01982234627380699			
C_1			3.72858602341352			3.62027505068705			0.27383638699289087			
C_1			4.297070017585621			3.1252485543582416			-0.31186510296666264			
C_1			4.065622540074185			2.714395652295207			0.186974786362107			
C_1			4.7359260914841235			3.3158469675629205			1.101847697952124			
C_1			3.93869032696141			3.940960879776845			1.2214760156328268			
C_2			3.319859398790603			5.959881612212694			2.6982697931888384			
C_2			2.690164287550422			4.642628198501261			1.777962716566948			
C_2			4.055194127798004			4.358161619645995			3.136971650114245			
C_2			2.8762262646798513			4.989867187961631			2.8761382448118478			
C_2			3.008902419275665			4.660732628208373			2.324485402833324			
C_2			4.385166429984682			5.260010215572177			3.19878863015057			
C_2			3.959000047226279			5.899730574107099			3.310689023378896			
C_2			3.2603599019604923			5.303112995036407			3.448208465872655			
C_2			4.091161333797558			5.309152278360571			2.212109052549889			
C_2			5.524628642423831			5.138765892482493			2.8509498595609486			
C_2			5.5749276937439545			4.415373100651744			1.8517648594400178			
C_2			4.672595275195439			4.379404728835291			2.3609218019734555			
C_2			4.249027022392458			4.837001192620445			1.8041392817369601			
C_2			4.999972456840973			5.338067148249783			3.3186889132701225			
C_2			5.012917508535075			4.943069927794137			2.9532513291397837			
C_2			4.888449117280631			6.097269280060076			2.05057650621553			
C_2			4.024082851770163			5.199674370414752			2.1676502317477877			
C_2			5.236278373406646			3.9639532680818674			2.940470651939901			
C_2			6.330048076873654			4.735753653735843			1.938900259739329			
C_2			5.574106786679415			6.41928702859778			3.5952697204919035			
C_2			5.086852416820676			4.647978509263008			4.063987771569592			
C_2			5.899717486395511			5.682485610741895			2.4863782780395987			
C_2			5.910200749422348			4.958898927813182			2.815385850786288			
C_2			5.942566453309277			4.403245716464839			2.5870571794999746			
C_2			5.769142002185716			6.141116642358822			3.3064389895468382			
C_2			6.5996743757850345			5.194742539172548			3.0715708606310046			
C_2			5.949582600735937			5.773107603919262			3.45003812551405			
C_2			5.666481853200183			4.277831256523207			2.955776870979836			
C_3			3.2209231388491717			4.5896383876918			2.9890133747866927			
C_3			6.040247792363006			5.130935549668747			2.1042548982136835			
C_3			6.465234216662099			2.8561016474074585			6.555199400349487			
C_3			5.464823630313392			3.0172875902232543			5.538116980275729			
C_3			4.814766321787936			1.9238547020619374			5.63373367609525			
C_3			5.4250778661199375			2.3577567232494236			5.5504209454605355			
C_3			5.210337774221369			3.5080478742046592			6.783942640196273			
C_3			6.5259296070170025			3.3699521313807703			6.793557816389322			
C_3			6.528836236464323			2.078675013152615			6.078496453401708			
C_3			6.3167624716866655			1.734069639875052			6.826820065172213			
C_3			5.777916248501765			3.5480051276686413			7.101966162450555			
C_3			5.028849538275693			2.6228661993860003			7.061789525997108			
C_3			6.143393093098769			3.034508221630786			6.8981730421004315			
C_3			5.796646557251019			3.83366585631591			6.373557317356394			
C_3			8.124037975756343			3.811444711843381			6.529982515846217			
C_3			7.715595941588238			2.9487254129980047			6.906216224661085			
C_3			7.205916617264568			3.788883373350167			7.675026205290258			
C_3			7.422151785980528			3.8627421230597827			7.495602694247766			
C_3			6.054464838344368			2.8649523728654547			6.427610523436795			
C_3			6.394680018254777			3.526680591372102			5.821900435343254			
C_3			7.796299000387945			2.821317190893395			5.45854760617793			
C_3			7.239224877118766			3.4302642025372907			6.792157656706615			
C_3			8.391025798248775			3.1577950081727666			6.1101946052999105			
C_3			7.6284277515182595			2.7681745067065506			6.357275741047992			
C_3			8.174661828647816			2.759577128633781			7.275721304747196			
C_3			8.809455685860165			3.5106579011271544			6.454193299174379			
C_3			7.76897430208314			1.6028315249770841			5.443326598543011			
C_3			7.189676580984957			2.2844332668949847			5.710594117297021			
C_3			8.388784942136706			2.6595238800960948			7.000240807878765			
C_3			7.094372304716904			2.5513459620605925			6.385199639181989			
C_3			8.300520153169296			3.847628522546825			6.1079602770660735			
C_3			8.568175692864674			3.9656971165032235			7.383491530004715			
C_4			3.0384136773839585			1.8257517519498987			8.246770343182629			
C_4			1.5528416464695913			0.7618296911123774			9.17292868576571			
C_4			2.7639295417850747			1.5001011020424915			9.050643906393287			
C_4			2.7973768088909847			1.3895944224368824			8.144305453849766			
C_4			3.457162591929343			1.2482342665237975			9.132637170222285			
C_4			2.1409077062342803			1.2144994941931215			8.614048302557807			
C_4			2.819620606746167			1.0916009592824083			9.666485437813186			
C_4			2.758754743556488			2.5140457417889714			9.407692783016005			
C_4			2.285874575989437			2.024702541226615			10.31048791744097			
C_4			2.6181804621162343			1.3860801307614694			9.222103786042766			
C_4			3.218203427355256			2.6669513144267643			9.36597441283713			
C_4			3.2504107121403694			2.1257415399492956			9.204303701712279			
C_4			2.0830231646756148			1.7103254632724805			9.113534966415497			
C_4			3.668650720495146			1.9386172346171981			9.111651741725392			
C_4			7.505265946079662			1.8091397789772878			10.277118588830348			
C_4			6.405730375901686			1.5328333451936629			10.322388321008239			
C_4			2.722551450945597			2.9842808669348355			10.234386145450813			
C_4			3.7997935457094134			2.265730835923936			10.416261793054764			
C_4			2.3890565607088035			2.2589344407268825			10.39136632587746			
C_4			3.379497225943405			1.8627973939088824			10.405596154926771			
C_4			3.4406584727826552			2.4697138230895503			9.874031829073568			
C_4			3.1017442710174628			1.3553348770085998			10.114349009584753			
C_4			7.616723801342379			3.193451367863211			10.602097246521808			
C_4			7.224779532788967			2.2352378951565264			10.225014717803566			
C_4			6.953348372956529			3.037328612140317			10.074371473120808			
C_4			7.709773895459425			3.129029517437756			10.658597642593156			
C_4			6.992078232479816			1.6878450537200609			11.35405242317724			
C_4			7.231361731650933			2.540490539485404			9.943895283645228			
C_4			6.1299790509106815			1.809936897841854			10.683804466092484			
C_4			6.427799433010144			2.2515970327042165			9.621755192761091			
C_5			8.76115684612124			1.6222508343478694			6.015180963377186			
C_5			7.340760406132414			0.2581443964084776			7.365856429417298			
C_5			7.843812221443078			1.276532788256103			6.067245000652509			
C_5			8.05473275138806			0.6566721731282492			6.404847414842149			
C_5			8.937752634384873			1.0542110879523185			5.546478901310301			
C_5			7.723715551528042			0.02622007961547933			5.883986459752649			
C_5			6.9950289941492345			0.35965504643299817			6.002841955407544			
C_5			7.2498213970074445			0.6174560118841363			5.027356764231753			
C_5			8.568026807828529			1.1294883783380791			7.377122709129814			
C_5			9.651252121466332			0.8210212391552729			6.729912249169402			
C_5			8.402468833624312			1.2285324924500154			7.854854400147217			
C_5			9.36798537508116			1.0680242301418827			7.099083417657986			
C_5			9.006053748603398			0.2959425066353203			7.520386352744487			
C_5			9.250341807942757			0.03963694773719709			7.1657521775589			
C_5			9.582052333244107			0.9088403110871707			8.537878170509837			
C_5			8.920548761485106			0.38698850665734014			8.660044499317191			
C_5			8.443008723632643			1.6472447221584392			6.218732290630677			
C_5			7.891897848508032			1.890852452393194			6.441701698902691			
C_5			8.13310345752285			0.27522528602149526			7.438077287168472			
C_5			8.87142437996409			0.07555189890878927			6.321245380022121			
C_5			8.574502604847673			0.8449983684097998			6.742893492567442			
C_5			9.221081904575504			0.832436466294276			6.355253026742599			
C_5			8.628776497947209			2.003577262947561			8.230057615234042			
C_5			8.80059238821553			-0.08622465587947338			6.926893135843536			
C_5			10.609569013272107			1.5571832260837792			8.488790272412126			
C_5			9.842512767886317			0.7891241056491407			7.444338075992072			
C_5			9.991676928542795			1.208416562799046			7.9679879849712965			
C_5			9.38131619085856			1.6827875744237273			8.897683542667084			
C_5			10.204406253859876			1.7200970791917973			8.571166586520246			
C_5			9.791505587124155			1.775562697274987			8.166296634803334			
148
stepId: 200
C_1			1.3233938487813204			-0.28274336397142963			0.1113396111580969			
C_1			0.17895115930825448			2.1216265825416847			-0.09903952221422974			
C_1			-0.08816699234910588			1.621043396895806			0.13209528736326873			
C_1			2.023461648214637			0.5125023018676798			0.7832876962396667			
C_1			0.8970408800623645			1.064982329700369			0.3029224964169383			
C_1			1.6734117654392862			0.6019397156909079			-0.7356361134979789			
C_1			2.3571789493787496			1.6219959395207486			-0.14456829528602316			
C_1			2.4656729294267143			1.4540194372015591			0.8833226135843297			
C_1			1.4912306643166937			1.4046594898169709			0.2718010486367703			
C_1			1.73879963252949			2.62355645190584			0.10285170749985946			
C_1			1.047560524323691			2.8187083218989137			-0.8300637104725528			
C_1			1.8657024731239074			2.8428358437816774			0.9203804990915525			
C_1			1.0961901281467248			3.3747248095689226			0.357749938790106			
C_1			2.7685785438819916			0.6992909632023347			0.3711058109583654			
C_1			2.7280195920565715			2.16718937603151			0.43256233674534367			
C_1			3.08377560686			2.442318050650132			0.48688193338179486			
C_1			3.107109923351621			1.4672920095264381			1.0472273553740952			
C_1			2.5603548968323255			4.0045480090879355			0.6041134602899498			
C_1			2.5999441841182285			3.147970947087124			0.654325903217829			
C_1			2.8273410810355504			3.0232686180707455			-0.500635311299066			
C_1			4.022323092844874			3.9097191234926956			1.0985451038910101			
C_1			2.4595947583877056			2.6535900809356328			0.6810237409176707			
C_1			2.9303824267868825			3.5533976923619384			-0.15069688827240096			
C_1			4.278206396835506			3.576685884745839			0.6748997760381777			
C_1			4.268104941596934			2.5415791040527775			-0.29417804574004985			
C_1			3.999369238035597			1.8776830146751105			-0.04009745974057861			
C_1			4.78875488059928			3.3580635805788366			0.4645183355914624			
C_1			3.9073284964076778			4.641123904820665			1.2116604104792583			
C_2			2.8899991738480875			5.3790218152962135			4.017912001927697			
C_2			2.2537190325327643			4.654160672383376			3.378772853400181			
C_2			3.6950681309290427			4.857851376447467			4.344301424930634			
C_2			2.3030188432684953			5.366114757423103			4.281572900729625			
C_2			2.4210903490547317			4.491299515182964			4.185480917719415			
C_2			3.374885968296952			6.87658636637725			4.495986199029677			
C_2			2.9919397262921428			6.038916443862207			4.582130701835106			
C_2			3.004664270359757			6.544127994322223			3.62113936842479			
C_2			5.105250407595374			5.563803186582122			3.744757463001523			
C_2			4.436080907318546			5.3098905336160165			3.7451470111842764			
C_2			4.297904792416757			4.113289085792684			4.090937326093216			
C_2			3.3796378875471644			5.424390609498088			2.994134347799683			
C_2			4.645276030367384			6.5290148362196225			4.414592813235103			
C_2			4.957188044425195			5.548655813374866			5.022439877679154			
C_2			4.73118455832816			6.880100556310675			2.973846714458118			
C_2			3.3394395851556977			4.632875028484883			3.5201065873319752			
C_2			5.127584528668585			3.6434437808626354			5.057669500516864			
C_2			6.028165526427142			4.867026685371797			3.262745647079888			
C_2			5.075516778749569			6.4701480676531835			4.390243330964485			
C_2			4.73061006618798			5.2051522104614			5.254459520618458			
C_2			4.398343246899697			5.91240535409701			4.540670750108814			
C_2			6.145469819358457			5.99053266254852			3.400206458869228			
C_2			6.007308218054419			5.0160291158023735			4.915805153875611			
C_2			5.683005171641913			6.559363524502077			4.820394744992253			
C_2			7.177066738845186			5.117706350718792			4.695188928111729			
C_2			5.366780960948615			5.73844895336655			4.663213258947161			
C_2			5.421915944029234			4.140497678221646			4.000007800001303			
C_3			3.0002711436187854			2.6637413025580683			7.993212325077641			
C_3			3.3333443869292347			5.278107831500643			6.854458928463067			
C_3			4.3251931806020245			4.531696469057068			7.74151985692945			
C_3			5.481298796398064			0.8945405122187553			10.343343411895692			
C_3			3.6389949030308792			2.804603411761191			9.692949269494244			
C_3			3.8656509978548854			0.9971810105514745			9.689333004490274			
C_3			4.430437868898224			1.193780668382435			10.24593492631141			
C_3			3.5484929426086524			2.605958211562831			10.40197802662278			
C_3			5.188753550505812			1.9103211937957694			11.052107866516673			
C_3			5.593515582262333			1.4724556417676682			10.254824357190893			
C_3			5.627451178363844			1.0201762185342182			10.698471124090089			
C_3			4.02890117182509			2.1454539965878303			10.866509160063709			
C_3			3.6137418293448365			1.8860350300822897			10.495907105034254			
C_3			5.1940116521412785			1.601732175743074			10.607236591174724			
C_3			6.790695036079402			2.9644727842153946			10.549658472131755			
C_3			6.393554253666897			2.304284829367047			10.689199582923823			
C_3			5.995457843516126			3.385991523974131			11.805993349470217			
C_3			6.520459802234441			3.2646619537213817			12.15281563439066			
C_3			5.383125791311242			2.7860286430353995			9.90437019699993			
C_3			5.021014741775529			2.535719601253793			9.655201332812569			
C_3			6.299668154616625			1.9616178249865837			10.26790993212053			
C_3			5.560201164486458			3.0319362857441066			11.178881677979833			
C_3			7.36581414250129			1.849230827151961			10.47164090669057			
C_3			6.535926428693901			1.4237536806330888			10.15553540336641			
C_3			7.071867610104871			1.7813468036707294			11.50350660410545			
C_3			7.91902631561091			2.2382631459131646			11.202019087403702			
C_3			6.733912501352084			0.9169317485628148			9.769078280254961			
C_3			5.6258158403406044			1.6381625021393722			9.879527138870893			
C_3			7.632353948804923			1.1775067678566857			11.455272148366141			
C_3			6.616489164729506			1.0758230071177828			10.286950586109013			
C_3			7.587521818772874			3.3201539064037755			10.235272107687837			
C_3			7.035176150135862			3.1040964816255854			10.98778556708015			
C_4			5.580139891829811			3.023573743721441			10.637293584359762			
C_4			3.9292011556345305			-0.16118757487623872			13.759277985539324			
C_4			3.0001379535958033			-0.9659308055659667			14.55276491088342			
C_4			4.7042697892135426			0.01877819397458165			14.306621947784704			
C_4			4.922091876609852			0.3322623750382309			13.686171708080398			
C_4			5.498636233888314			-0.5850640608264362			14.207267553593136			
C_4			2.5293810531815306			-1.188098246153746			13.831018118886544			
C_4			4.848559061784762			0.21604762233333066			15.148365838808807			
C_4			3.3453920914159054			0.5695452735683503			14.588972754706118			
C_4			3.5720003646966916			0.34548213817086515			15.578454630183408			
C_4			3.4872215023314084			-0.46867464968604117			14.04562989881329			
C_4			4.3050815312881365			1.0212495371420955			14.520260669580782			
C_4			5.04882223963223			0.24033968595556507			14.525967040315335			
C_4			4.144981656850614			0.6766258874981385			14.198505189269737			
C_4			4.642731445856792			0.3376889812267821			14.137482392362323			
C_4			7.590474209787169			0.4325847630849954			15.12086220135568			
C_4			7.030682792803923			0.44397983198378616			13.938246136349152			
C_4			4.014350456474052			1.561627575547821			14.652475892022936			
C_4			5.577230172637567			0.7105551728612243			15.423710085914841			
C_4			4.333590723613002			0.5652899534439387			14.612614939560867			
C_4			4.837379758346876			0.3449951218719432			16.01934641997789			
C_4			4.908617275201911			1.3058403931462346			14.652325469142635			
C_4			4.131619439385441			0.08618896969391408			15.005955342239062			
C_4			8.10577333719027			0.7492333216210758			15.643427973965538			
C_4			7.73073805735395			0.4461881855964804			15.13602035120125			
C_4			7.686741946227896			0.9636331767749265			14.529448010349824			
C_4			7.992348891638767			1.8343992230812476			15.014196937072695			
C_4			7.295135300502387			1.005199104400214			15.65375971514923			
C_4			7.08430430508622			1.121220742525024			14.974883636423503			
C_4			6.864100997163362			1.2207872491775145			15.787010237078723			
C_4			6.204215277433004			0.5546753759739533			14.470306004101436			
C_5			11.111013681888654			-1.319580550539141			7.175524265173376			
C_5			8.988697833380341			-1.9716918555790597			9.75660559228701			
C_5			8.646068986653688			-1.2345122741439756			7.268462562155389			
C_5			9.983598622855034			-1.7922350815162267			7.281923377370574			
C_5			11.80865096800018			-0.9748771841985777			6.526108688733655			
C_5			10.562753960554732			-2.7536976795963803			6.7923960136821275			
C_5			9.077755259484219			-1.8088064516204367			8.006028018722075			
C_5			10.019801842023796			-2.4333213821933133			6.180088406623904			
C_5			10.696713967332633			-1.2344447284877675			8.867015112746497			
C_5			12.310466973276746			0.1646595556402024			7.5469482716990335			
C_5			10.561920461000202			-0.7260936643759376			9.064544080346431			
C_5			11.76082792649711			-1.223859893169087			7.859172884157433			
C_5			9.868397625122022			-2.308808985504771			8.253513609553833			
C_5			11.413058456446807			-1.812323503530706			9.050855704859469			
C_5			11.223141706319888			-1.5357075245081944			9.629592164507445			
C_5			10.71289698908949			-1.293674041150672			9.965139206232097			
C_5			10.75454545282309			-0.4359097535493392			7.3490594372171305			
C_5			10.59364078402785			-0.6062959035202375			7.876071888047531			
C_5			10.574695938231406			-2.4888650818223454			8.861762920966067			
C_5			11.450405191462128			-3.0774405548861097			7.825944081886907			
C_5			10.58795179627405			-1.5033389922017433			8.746926777202974			
C_5			12.37347057617034			-1.7275450366052032			7.363872161091144			
C_5			11.119255557075201			-0.3661388477038832			8.583561748733729			
C_5			10.993015884121005			-1.5898242308409756			7.808022941949951			
C_5			11.927704726141732			-0.27597976256884865			9.70336460737382			
C_5			12.317510819037272			-2.1913174140171745			8.186781243666205			
C_5			12.664205246638954			-1.5177192375739126			8.286312335391735			
C_5			11.236180568714206			-0.5960928111710954			9.921819776920948			
C_5			12.66137686368901			0.45452925934485516			8.603398980602343			
C_5			12.265052837172279			-0.38415237370970645			8.651358720479013			
147
stepId: 300
C_1			1.8482746763880284			-0.6599978095977678			-0.1561801854724277			
C_1			0.09460692157485141			1.608928782610609			-0.41127023205511454			
C_1			-0.13775675125990786			1.3798441617464767			0.14774857334740477			
C_1			2.0896695983347144			0.5976719698857981			1.2587488151342243			
C_1			1.0885932609594173			0.8980408329520259			0.19086348628708524			
C_1			1.214760918590342			0.018557597583755428			0.1352989517139828			
C_1			2.826794763832774			2.2184630243526295			-0.2101088439524126			
C_1			2.755805402258174			1.6303862436034957			0.870596983230729			
C_1			1.3958595840061616			1.4010167249891485			0.18803856449975884			
C_1			1.6425671990881439			1.7151898810609951			-0.7601379443018372			
C_1			0.5597586881789808			2.1018223261238913			-0.7785783328736587			
C_1			1.4413658577985469			2.7036734563278633			0.9627495873088591			
C_1			2.9479940155143627			0.49280855152467157			0.6817508148164404			
C_1			2.553695534809211			2.712891763505963			0.7971188827630066			
C_1			3.557888573939274			2.0315129419196793			0.28716652301808376			
C_1			3.9531731391015237			0.9746642363358488			0.745412732534117			
C_1			2.9870209885586885			4.033584178930446			0.37845175062048725			
C_1			2.3500680643327057			2.84233746608427			-0.22781360897928016			
C_1			2.7768738504446677			3.0361516903101697			-0.5662950708160887			
C_1			4.34858179528694			3.5995390993510723			0.8340503348773843			
C_1			2.5676277977049136			2.714354665471822			1.0661193893965846			
C_1			3.5234337668059967			2.469400091489024			-1.0098403513832677			
C_1			3.9773854524850214			2.7367613090690464			0.1378615290960045			
C_1			4.612606441933014			3.121469184812495			-0.6303418535798994			
C_1			3.853122350767784			1.3580247170702702			-0.6480727579971058			
C_1			4.081541996193728			3.801805572889348			0.7302834783870079			
C_1			3.810555689130989			4.184047142791011			0.519975648110337			
C_2			3.0969055120858515			5.642687215716652			4.743323007071585			
C_2			1.8104351663840952			4.702904884042576			4.561830914005607			
C_2			3.464500736499603			4.689909518642661			5.250065450281922			
C_2			1.5153421919120158			5.47655592140219			5.578255085513336			
C_2			2.618498134974393			4.689947212631714			5.437753665193455			
C_2			3.525119405101645			6.744184187697112			5.08436437122553			
C_2			2.9003261041099004			6.910443181299294			5.158270019383725			
C_2			2.079690478897434			6.582551555607613			4.3166796370833955			
C_2			4.343364721741521			5.8538369475744			4.9932174777964375			
C_2			4.717165626510651			4.816487619609382			4.8194493260009725			
C_2			3.8533992824423726			4.347156813139096			5.423139795315328			
C_2			2.8785849751677377			4.960358552262709			3.9090033250797944			
C_2			4.593621756295437			7.8615683297248315			4.9903601460060605			
C_2			5.019776737633372			5.7138738755770655			6.185178152680458			
C_2			4.044460546251879			6.570068484451738			4.191584064806332			
C_2			2.6073091091779887			4.060745096237474			4.595360940713959			
C_2			4.7265544711454135			4.447112770395673			6.180636146437066			
C_2			5.843004954540005			5.743209884054393			5.255274520859819			
C_2			4.9888367488104866			6.685615052826794			5.557071932955931			
C_2			4.909201932296775			4.1893580675069275			6.204038035352725			
C_2			4.338872523756044			6.625713867314386			6.239562788085609			
C_2			5.449802968641097			6.292660420635128			5.174427570417844			
C_2			6.446542508133672			5.329438931379703			5.918492469665026			
C_2			5.355453732308013			6.49335515329634			6.023130962928013			
C_2			6.7457635367546045			5.262074510101581			5.279038307464795			
C_2			4.311235263509137			6.173809951022845			5.27256035782576			
C_2			4.518015167384248			5.086564411007334			5.4770539493906405			
C_3			2.894923987851273			1.657776858940245			10.880074763814358			
C_3			2.1804510575792153			4.960199669720349			11.570357419179029			
C_3			3.577169435397955			3.4566551861677444			11.085652930269827			
C_3			4.671176512422319			9.4846535755446E-4			13.493278913252745			
C_3			3.065849640873836			2.2387494137833874			12.15737685099083			
C_3			2.9920374656668103			-0.13197429766505914			12.541954617936986			
C_3			4.395906480910158			0.5202450934685311			12.515801344318707			
C_3			2.7619378816984184			2.28292788827025			13.509416897277323			
C_3			4.507030278389012			0.9444301244568476			14.164178535361339			
C_3			4.971484104046967			1.0905044374068722			13.158842177710559			
C_3			4.493611572096795			0.13634450105435297			13.335842981497894			
C_3			3.161172425562294			1.9334964186305703			13.321551241474161			
C_3			3.1971173571704954			2.0201031953722253			13.04715491584627			
C_3			4.129426680480727			1.434876045700308			13.531046362563886			
C_3			7.118431878871217			2.0800596691485906			14.256925769982423			
C_3			5.850549226494148			2.0353608814656727			13.542578222934411			
C_3			5.336248392523994			3.154506536932059			14.150027012403944			
C_3			6.579145765877571			2.4039559755632145			14.710504542479772			
C_3			4.302974822758712			1.8388057919480194			12.707408867528855			
C_3			3.2525946388341427			1.8906722335949298			12.486511209428041			
C_3			5.1081237931656025			2.014960037656308			13.073236256309853			
C_3			5.263895425293274			2.493109808588561			13.881471569049541			
C_3			6.386625048781219			0.9294697538541956			13.420437835359964			
C_3			5.515671948351349			0.08366135268528256			12.947870294365366			
C_3			6.300297265564663			1.2198884362256177			13.99831424616521			
C_3			7.666755364531437			0.9299251768850753			14.320216657770375			
C_3			6.8721174925660815			1.357535710548317			13.005355318431599			
C_3			4.68129178961771			0.9067888389015385			13.366829066380083			
C_3			6.016143078937321			0.4933222699969242			14.335256737938375			
C_3			5.53911292653182			-0.6596444606614579			12.724786522305674			
C_3			7.380282755824162			2.713133337072135			13.541019548487984			
C_3			6.90729688396988			2.6594627418500414			14.093006614363727			