LAMMPS (7 Jul 2009)

runmodif_srsim	ruleSys spass.bngl spass.geo spass.tgeo 23458
read_restart spass.restart
  orthogonal box = (0 0 0) to (200 30 30)
  1 by 1 by 1 processor grid
