3903
stepId: 99
C_0			70.97070721925414			87.23458507067663			18.016005060324073			
C_0			89.98278697947627			91.93336405969387			50.0736316119724			
C_0			1.846594291911226			15.451523585407985			14.582829687881995			
C_0			42.28225197424468			49.62293986781602			12.119879130788968			
C_0			35.127966994380074			79.82088089548873			21.82861018416618			
C_0			4.204531369191359			87.54788113514479			41.56996200100874			
C_0			96.56451229104613			69.62390235495536			47.780561964491504			
C_0			68.56733251992483			0.6205658277282176			43.320297695434554			
C_0			63.90991962289421			35.70773716118902			2.5855438127928134			
C_0			79.24222900032387			2.486857885819869			32.95318663575441			
C_0			11.105971634066956			53.604643197370685			16.358882598690013			
C_0			29.541515884457134			41.96859164551124			39.204283205599594			
C_0			41.00218249059198			59.337930399024074			52.39923785983094			
C_0			9.50077057730067			25.944800520440467			34.23972318924254			
C_0			5.856390896474734			96.51702222600736			13.404848687797385			
C_0			41.83229935589197			95.3821615643368			20.107177726992543			
C_0			52.7987697183416			17.531256994315502			28.350731072026456			
C_0			84.29231224154321			37.77793081715541			22.601226679490168			
C_0			53.95258737298448			57.95521477490398			14.106451766209425			
C_0			6.213082941393696			96.0989798982446			10.190257670292187			
C_0			64.74166492803145			96.30198255097682			36.53403333100428			
C_0			36.75392210855109			13.37477458345672			16.45793188444805			
C_0			4.760191230389565			58.452374496821015			52.63681551433077			
C_0			43.56070413263062			9.118075089526313			42.55580984938059			
C_0			93.72855957868018			3.5855127926251087			51.06651339667891			
C_0			90.88156065496727			77.08084926565569			52.025555112463664			
C_0			75.29267744943135			12.615753851456304			20.706916114143777			
C_0			38.21784395914646			63.931962274249464			29.57282608267333			
C_0			42.356631145768986			84.8799221150197			24.080336469498448			
C_0			18.667933090282325			63.751462604702965			8.704031758973546			
C_0			55.01083533434143			49.25971083506711			17.11427303323405			
C_0			29.551039336694465			50.83938556583321			35.71360637440172			
C_0			79.40459469241527			78.89544758101282			8.863443087309367			
C_0			0.606898334694275			41.04955695143338			22.556529308899286			
C_0			87.05590635512338			10.871497760265779			45.69535807848552			
C_0			55.61264695235941			57.954415452114866			53.65499234867943			
C_0			25.62368101892172			70.6770540936746			15.768616526547238			
C_0			42.245768383004055			87.09092483993861			8.668583591472814			
C_0			84.31380355746067			53.32462571730172			51.774505270082095			
C_0			77.42343752881432			73.25483583781794			10.50879743529655			
C_0			22.930936710438672			77.6777054295601			41.3019312855836			
C_0			58.65601157326046			45.312198026368385			11.429113694104327			
C_0			0.4591519869543962			85.09022435157158			10.903393846258986			
C_0			23.566238829522955			93.73635563998702			17.418589924187852			
C_0			49.05084766827831			15.268778459268676			23.858213249864786			
C_0			27.483566257424883			22.675343699852093			11.219787274741103			
C_0			21.37912096160298			54.86858182920313			49.84165886757779			
C_0			10.511350206792885			19.1253102646664			45.593219138227134			
C_0			39.762302125182266			24.09394814230223			41.49304716218791			
C_0			0.24786127737447472			64.55250897831212			4.958566131105103			
C_0			75.49520194092749			25.876634355240927			7.1367536901548565			
C_0			58.85142342803725			8.37142313900931			50.71917481651184			
C_0			95.2127774212745			26.965373500755287			27.5250173460826			
C_0			89.91525580123293			86.9087016358873			11.232713253796767			
C_0			51.12878270734281			62.36838453604887			48.23526769935454			
C_0			55.68108703078665			63.18840798122032			27.503674683486583			
C_0			83.7541829485718			79.51348879525034			2.7328311267529495			
C_0			51.70726876461066			4.567306712766571			23.410825698374204			
C_0			25.03766131566079			58.6157082751849			18.760414147261745			
C_0			13.24226699704712			67.49868670928565			22.87768783457515			
C_0			85.39762258428479			24.18212226384982			29.212984461401867			
C_0			89.34892434258481			91.38301439904373			28.43149596324733			
C_0			52.024533850623605			43.94313665586044			9.701049688674816			
C_0			70.62841424619991			96.7213679938597			1.946367402788152			
C_0			47.76686200520426			71.7942357499094			22.83237594901632			
C_0			34.6106907767883			85.07326973905018			21.365132008485286			
C_0			60.05321506789953			91.37146679341942			33.78195135617161			
C_0			6.0933160360329435			91.7331947064078			24.901432074764124			
C_0			66.85312383380784			69.3477000955221			53.91191586999792			
C_0			59.2892212309902			64.36057179690427			31.340815189097828			
C_0			74.95432377440108			39.31775308001818			4.604322135348878			
C_0			53.59657712241584			30.155067595718272			5.076975861825673			
C_0			95.6449764042992			35.43579026396825			12.177897956275523			
C_0			1.976507175657971			73.52457870027612			31.15698045766271			
C_0			84.40764331290237			80.7419749000103			39.917709947966486			
C_0			96.03542517339072			72.8658825530477			16.282627004397053			
C_0			46.69353230685791			70.46047705172994			47.829615001648314			
C_0			22.604402860953705			85.58388913496417			24.05650692870457			
C_0			30.90595572271683			68.80244403726947			24.34716282932695			
C_0			90.38691550114673			14.388941097317565			33.06761811351431			
C_0			16.080172727755354			43.54660378629374			33.62009009089189			
C_0			18.37076105082801			29.401764949583743			6.167034958233382			
C_0			90.13471504078112			38.8388292734627			12.979382589866713			
C_0			29.38343439084084			54.136731983250144			28.022022414603416			
C_0			97.70173540303833			25.246207528517754			53.81104160490761			
C_0			34.14866367807041			28.39653550528915			46.403416612166765			
C_0			14.605888262179773			69.0521287494785			0.8917847079126643			
C_0			1.8820783710840776			16.90965746924146			25.78132671371036			
C_0			29.260743222763715			1.229951107079379			17.862673844878813			
C_0			33.078708036172614			84.22162800209406			9.528365933790434			
C_0			5.291775627494164			68.04385877669553			3.0525371294522006			
C_0			31.960788015574202			26.014778677387113			44.72828890636098			
C_0			1.0286664356426023			18.53966100747622			0.7992163040960191			
C_0			39.90004881000717			59.40115682159268			43.53236506613156			
C_0			19.802853860967016			83.21179971470042			11.467990716981264			
C_0			67.03987250674707			8.96185859070756			8.08204081319153			
C_0			29.465882211939043			67.27042924360894			15.986344858822076			
C_0			78.10410063649847			76.48807399093599			45.06912524202511			
C_0			21.607842454876298			17.136168926366413			6.017798866822109			
C_0			97.52673028917295			35.15221075740413			32.29149834337189			
C_0			31.19956053224071			93.6991039438241			17.55650063392013			
C_0			85.64015951154641			66.36923092328638			10.641653518678655			
C_0			75.97766851398596			82.83356940786523			14.487088007130906			
C_0			15.648873016347629			93.7899234617297			10.22008275246686			
C_0			86.11542564043857			0.04451009309924729			0.6535285018001368			
C_0			54.13388510149344			23.66723951550675			18.543638970690022			
C_0			54.9811959160449			4.731958783917954			27.406195529249427			
C_0			94.7689823001055			72.34058996483215			37.12264878543302			
C_0			0.4707782764932133			10.176143292741706			17.086977389254777			
C_0			52.37933325459838			94.70972676068837			27.43982723985309			
C_0			12.060782315333158			48.837822475172885			28.185437658077657			
C_0			29.648227664926843			93.99002482495702			52.33726438171472			
C_0			3.188753617059639			77.24463068807472			47.15125213944457			
C_0			11.027617810950426			87.95174208113697			51.56357263964695			
C_0			92.76203747792589			42.004207510797286			19.23053973730453			
C_0			4.043100013179779			82.15419587444786			49.585493698922065			
C_0			75.0954824561938			76.7694777624537			47.969116041331844			
C_0			95.6322349201749			8.22080784857143			47.77507661124245			
C_0			33.14372044330092			78.20198891800597			32.42768547368707			
C_0			64.63700901569197			90.73623975310944			26.977721180742883			
C_0			50.430656349733994			78.06033678854163			8.175771008347592			
C_0			68.78582709529286			21.172402514599277			30.336328418000196			
C_0			20.88309436004119			71.8696862101894			35.90740928859464			
C_0			80.6709743079709			41.13815790855344			34.76388295789557			
C_0			66.91006704320904			9.108927026891635			51.39986359713196			
C_0			18.423979274887543			8.304173169913058			22.513792721654273			
C_0			55.926598782613404			22.070779602281895			27.462182278876057			
C_0			18.094765103421988			25.079862617054552			12.53388954922459			
C_0			32.26227717224747			95.65330332526024			29.915644279581127			
C_0			5.69960157422763			8.621272457725553			3.0401133408773933			
C_0			94.68614676137301			61.678461967426365			23.90600451304293			
C_0			53.30482958430861			62.67109641244294			40.89538173223538			
C_0			76.34597683263166			75.50326004685454			5.595215253472392			
C_0			65.35936985699162			2.7176310852558743			30.639717714086963			
C_0			74.08049203153575			99.3081332610736			22.447052541496276			
C_0			65.23316918779253			62.37289520751073			22.738490365123184			
C_0			3.466989442012062			49.60254656188679			45.408556560305236			
C_0			78.57483058189823			48.04120794638181			49.70455797030502			
C_0			66.15332202002939			86.06834051651742			29.281034740040287			
C_0			60.241326882878404			21.91653347258367			8.492092009726752			
C_0			61.067175018666276			78.33441344300431			30.2298155894411			
C_0			66.58964876342807			28.814802229647245			45.481438123644324			
C_0			44.64568413534726			69.0411548796949			23.417260713009483			
C_0			68.73464290373997			25.1558027240306			49.14872020972969			
C_0			84.03365676586846			46.86292876228284			34.335778497230315			
C_0			22.467479412011922			16.81344063988559			23.709811886473567			
C_0			61.908755693132015			69.44369044116668			45.58453720666085			
C_0			65.49349122702581			67.3795996539242			34.1092633213882			
C_0			84.85535644856631			20.95707687912568			15.877473061953351			
C_0			57.67792879164849			71.36396057197203			33.44257595392436			
C_0			46.22913820450268			15.79509605857918			13.063466975967769			
C_0			20.012970805577503			81.80697395804728			4.0855048639385405			
C_0			94.3360292119635			80.78663186444933			39.55619668711623			
C_0			63.29158643305403			91.78317737140337			38.18853762063839			
C_0			80.25836899027126			51.39351312725133			14.324882200835745			
C_0			96.3776273294756			37.53052996825344			27.581626979284945			
C_0			77.44586562213375			11.673727622270787			50.55249142655714			
C_0			12.686698748185592			79.10881142541513			1.032999841377327			
C_0			64.87298805489941			94.84767660342412			46.111854201902766			
C_0			14.59328026123423			13.625801309986748			12.068233740090685			
C_0			4.378395847588009			39.95833983044981			13.451903164423221			
C_0			94.47842327868582			84.07297184750126			41.06824602472623			
C_0			13.16205170208666			64.70644681077528			16.316086750095746			
C_0			83.47037006179164			87.40757764337488			2.415328829590956			
C_0			44.99563306955519			8.66262704463994			23.578159614927188			
C_0			10.259236873123013			21.67834103812282			14.708219863415197			
C_0			67.20585693764814			41.11281463133072			12.785105256112534			
C_0			86.5717547049353			46.7158470334503			40.28108142780483			
C_0			8.618892576952751			88.0398763457839			11.764531694447307			
C_0			80.75061023119785			10.3509705636438			15.043851193306974			
C_0			59.80297931220066			44.16862096040181			46.07552125653999			
C_0			23.220993477929884			95.76145155638913			46.424587540652425			
C_0			39.13328542964719			85.40854510005254			27.358219871968853			
C_0			38.290874079084006			34.842715040387546			2.8056907359941143			
C_0			32.06257121456858			7.110261251681795			0.5717055330386238			
C_0			82.35546895238767			84.05501532766647			30.113170258233			
C_0			38.25614210960958			7.210936575667171			20.24518302819396			
C_0			52.94032406913155			100.50868189752124			24.54830463127392			
C_0			84.50972525012048			46.382371097757506			30.94268416790925			
C_0			43.26684597227964			66.73906243143676			8.792871772538932			
C_0			78.8143087477141			2.8219777665640065			19.950163427747867			
C_0			93.91658604100837			8.97684088612693			9.5997379271878			
C_0			84.8603269518753			7.998561947135069			12.309887146873852			
C_0			38.646659575637926			40.52536868871748			20.293957132101838			
C_0			44.69934194122554			76.96043123560399			37.588331798273586			
C_0			12.220495166510124			19.911956280087946			17.45732504877079			
C_0			29.64314614657515			98.09444878656211			22.461918949147584			
C_0			0.8526185228431982			10.179816288940819			27.405027781422838			
C_0			26.44196707794273			95.31494204228282			36.19873688783963			
C_0			57.42714578200516			41.27902037607203			37.11739018860708			
C_0			4.463785210196453			44.83889575094456			54.26141965010755			
C_0			49.018077877642654			87.51148714851115			13.501796381802059			
C_0			61.32109465679072			83.94499543409069			18.306405493960053			
C_0			77.06828901904557			85.24363301638536			18.155978232764152			
C_0			97.83069503882214			33.17743266369446			36.44815321070879			
C_0			82.979471160783			77.45529507233225			45.93260632489356			
C_0			71.45218098424512			11.23523845617547			23.029697100060382			
C_0			35.2488343149122			71.63202317506651			37.25096804977524			
C_0			53.850645872642204			47.41705975767127			36.92528538881729			
C_0			63.420808208418116			12.774161543328649			17.213993755313602			
C_0			67.4282481391504			9.071811061380584			48.44358625961158			
C_0			97.46474958304097			62.11580663075774			37.08094900270158			
C_0			85.56659650546581			81.79850925516746			10.12184519482907			
C_0			28.18099030549802			41.666731658238156			52.52608449773506			
C_0			51.2333910543377			45.5080905071026			23.942446053257473			
C_0			75.55648448001386			100.27341509043963			45.8828694766363			
C_0			10.492062039786374			15.193287914104994			50.95691339109322			
C_0			74.98576852608774			34.684161570816066			39.04070684987042			
C_0			7.201930546026514			79.19973347089227			38.040353206142946			
C_0			57.44205568329389			59.88514637813686			31.690870834540807			
C_0			95.76513233338694			38.538205883477715			37.87169962256121			
C_0			28.51187625724173			10.1035266930671			37.2227004963246			
C_0			31.595324874574818			68.38989768485834			18.965869026626955			
C_0			83.89142938691816			15.556795437661577			42.29601981739434			
C_0			48.946981807736556			58.0306273971396			36.120459841425564			
C_0			62.55982855847926			57.073705177717486			48.480674788359984			
C_0			6.993170592020849			30.138529527158035			38.6510978378634			
C_0			32.45574280355811			22.96842680987877			12.48555465686983			
C_0			2.33829350634373			41.49774615912805			41.16757573427571			
C_0			75.70611058709036			41.40930816553564			50.30152450123856			
C_0			44.17892544403313			98.49329652898997			31.69213099218261			
C_0			83.38737889039807			97.39602884474762			49.404261010639715			
C_0			31.595202751824413			79.46761749353404			46.92991319538026			
C_0			31.743041738296345			28.827334782409658			0.6797377031859857			
C_0			29.91308625787772			1.448381914177462			46.0187124795947			
C_0			72.33149007588838			35.73213059561004			8.798289062208413			
C_0			3.424269330843992			19.570879487700427			9.527108197050852			
C_0			71.3513922040396			10.372875746943604			41.68492977191976			
C_0			28.671813944154426			48.95843515021214			5.545001214857963			
C_0			14.808561311176321			36.57486225709351			7.146338227810149			
C_0			64.74848179077598			50.67747786379808			14.010296957557332			
C_0			40.317560600542194			45.86946115338969			18.137145841998965			
C_0			61.93420583341387			3.9806876354183163			4.749139471471644			
C_0			17.507459340318842			13.773884738301659			24.165011931370586			
C_0			44.954239837008494			80.58686398784207			54.091422462804516			
C_0			27.729680294471237			96.10332545831793			25.27353872434242			
C_0			19.040061447416303			26.48577327005748			44.363097258048214			
C_0			56.78688352174402			15.81647245009866			45.82899301134794			
C_0			11.503985260857672			23.538878242653			32.361131679417504			
C_0			50.214720709378845			2.317964741437316			40.845202371143024			
C_0			62.59543799103089			8.040033196320897			37.039531716934334			
C_0			2.828646063364723			95.06400820545863			38.16306304969191			
C_0			7.846717774087444			27.929185108670502			31.551160121346552			
C_0			87.6461419122505			30.77791094310939			33.500350625916404			
C_0			98.39459505333927			80.33266103875155			9.405279060015804			
C_0			46.86091125891353			3.8477308496576343			15.775085849776996			
C_0			65.83100564375559			83.18627091648032			52.27213000032069			
C_0			85.34495199726769			0.9408225990377644			18.561734579367993			
C_0			27.610524032652187			48.38150034099973			42.903997237079516			
C_0			76.52233670675982			64.77510986481118			24.324691835070578			
C_0			57.227716689209544			23.912016696218448			24.009681381144308			
C_0			14.889407133311067			38.76483278178189			43.338555729580975			
C_0			62.21960596825899			7.704265697259211			34.829125819382696			
C_0			93.69837620353891			69.55463102138543			7.096965887673514			
C_0			3.2869253580557656			68.92088464636379			42.20021049489236			
C_0			8.983283588160806			11.48716951731834			31.267956069719798			
C_0			99.73164562800268			1.183014692913317			13.415133866340714			
C_0			0.9007917501703153			91.99952153076772			40.77260911503495			
C_0			85.48591585936843			64.85001363415076			7.957655560599755			
C_0			74.1839972017665			71.29907657398377			15.64201856377251			
C_0			27.206636956152867			90.23116222966067			3.946315967618309			
C_0			22.3180237811828			7.038519956611167			20.40018349183762			
C_0			90.54372659737804			78.38222738554086			48.819452915502225			
C_0			69.7429829424893			31.470751330429156			5.31086574029478			
C_0			76.14149442428145			6.689916882131275			0.4528471401996526			
C_0			71.69879659163226			70.82468059137793			12.406331679602232			
C_0			50.0736717908445			16.68136650553936			48.94257395832558			
C_0			16.70653571054677			27.458622934658024			3.161576841277143			
C_0			73.80899244510361			66.24876723298608			19.076333226304616			
C_0			35.59304179312223			59.89435712296361			21.55508313113794			
C_0			34.08752414427113			19.307621708121506			30.9731727933926			
C_0			21.076699886417178			35.56562282594511			47.335693692412356			
C_0			7.7498804026365			5.1910786319972315			38.1376610776643			
C_0			24.98645610976095			89.33051993165584			28.108602838088665			
C_0			86.23374556661675			53.44724500572679			11.899334784557622			
C_0			7.273684131885425			16.539316713801362			33.480814032695065			
C_0			44.482665995151564			100.07236595842667			11.323552419162729			
C_0			20.82396664233093			97.76718025230461			27.58550476842832			
C_0			93.7633860765117			31.18591268603057			23.388865843823766			
C_0			49.77844814748856			17.995591122142212			16.90376318454298			
C_0			70.02243922463781			86.60890156059297			52.08719416619787			
C_0			12.152768120093233			69.74864297955376			37.97710699588769			
C_0			12.618128744811965			3.9925993734483494			29.00022983886453			
C_0			64.16931080879638			70.54191905816155			48.208766075298534			
C_0			28.253189163417748			2.4988974876314587			32.059784697265876			
C_0			67.08989119862682			25.062736485244663			6.587985279553189			
C_0			80.06846904832358			74.49734354039697			15.488910189215884			
C_0			34.704859557559644			95.22470789853416			10.938037552554203			
C_0			28.00168635559545			14.324240530673125			21.135803900225064			
C_0			6.854474734546294			65.82162238225884			47.23036028732284			
C_0			21.44509553061905			12.627530442983337			35.257458577458465			
C_0			30.832847465494797			94.96401032182663			47.94481348925812			
C_0			52.79485430820615			68.14035291122967			52.48986587694122			
C_0			37.52061374376239			45.87102397417243			11.515879557998812			
C_0			13.979187208960127			15.662774019148772			39.36458677874739			
C_0			9.195661607258831			45.69766577586344			0.4505100400383744			
C_0			96.08218342031778			12.243443519892027			45.52790995673626			
C_0			62.490657473611066			68.3355987524129			10.056354754536416			
C_0			18.38492068827905			86.47209019532687			48.54800554104607			
C_0			94.60241792292129			59.59261252524893			39.77687944417128			
C_0			51.804069257753554			29.42969427167574			23.99854597900872			
C_0			62.040320422009174			31.5346473637319			50.49652458588678			
C_0			14.485383503604286			84.01226049739773			31.911919425459264			
C_0			73.11365294280479			20.167395039266736			23.983818371840623			
C_0			51.52262325640855			76.62109667953357			13.40800395341514			
C_0			53.10996880407943			17.268843910856784			35.299611558966895			
C_0			66.75623294014183			53.260680852986795			38.772682893283104			
C_0			48.26318741249323			29.048502017111126			17.19392991198655			
C_0			12.590751775291087			5.266317900185785			23.94490109903191			
C_0			72.12706417703352			56.62016519866423			2.9372367156285812			
C_0			14.112263166145144			94.63684819189216			36.800372935069326			
C_0			48.32345224079189			22.322162465015616			12.49153065243338			
C_0			54.065758645617564			54.55859177127121			36.211306568018074			
C_0			17.06697003585231			54.68481128148635			11.997157089744022			
C_0			87.35771266290224			46.31011818692068			25.13753343429559			
C_0			99.67920141360686			15.89316936628696			26.995921190481305			
C_0			65.07026405809769			31.86823752185273			10.350726952637551			
C_0			13.072590454071992			89.86135570597699			37.54448817835624			
C_0			59.156284789725994			31.87573473652091			37.45201197716704			
C_0			80.24819248040171			35.41265793175383			43.61199042318339			
C_0			6.764874190431925			55.26984109214462			44.575957269651546			
C_0			36.55156665090147			19.90987744634498			42.564470498218164			
C_0			66.89426145575398			99.10479302953446			48.56267492150587			
C_0			30.6233171507517			97.1413927446169			12.858676615115668			
C_0			14.806372861220368			32.867007031037446			15.310277929954914			
C_0			55.93090549304941			61.964302605487205			5.445710737666203			
C_0			20.6971460626926			46.06722595223891			11.557559930731177			
C_0			70.07883702740953			48.18683299921299			8.919384070833777			
C_0			19.678730935262386			86.40234524712257			36.19739129243071			
C_0			27.746187004699447			50.023457293502446			46.64915747785619			
C_0			52.148361248430824			6.7597509884226525			3.57157709836236			
C_0			59.906116677727034			34.12322330239443			2.119111764175626			
C_0			78.93364185716422			19.822711876242312			11.474387962616682			
C_0			71.81002086717238			42.60038386076259			42.59719480507968			
C_0			74.55400769230621			74.2491129143914			39.56419222201641			
C_0			24.323064531912248			23.34308167972725			29.13876476684915			
C_0			56.67755865619414			8.190347551235632			46.60885551697729			
C_0			78.09773643231122			56.70519055288373			35.6855130901678			
C_0			1.6713816575326752			64.82356468633873			37.18766976574703			
C_0			66.6872948514014			46.325744635132025			33.67259487592512			
C_0			98.70200462877861			8.840125789705226			17.240671189544347			
C_0			18.070523322992372			31.15088594824039			30.669615547060975			
C_0			82.63655768371152			29.899681343841625			24.08048446932099			
C_0			96.60711174341644			12.416388788466149			22.704135224745585			
C_0			38.35327455056834			93.70881846582142			48.79344065794095			
C_0			5.729956867674986			92.89857216807586			4.7130681654572			
C_0			26.64085685368536			14.002762120793134			47.7473692781123			
C_0			23.037714593767415			50.462504262417795			22.570974616899978			
C_0			43.343064821797135			79.9818340535869			45.1098567395733			
C_0			66.60675214490405			94.66293134901686			33.14514480785797			
C_0			26.047758656563936			63.696779820379604			4.89056269853911			
C_0			14.727926850977163			67.08573604136531			13.875404564753433			
C_0			28.24042709986564			18.991221405763987			40.75262394078678			
C_0			30.44442227791428			38.05259065748734			14.6061370235671			
C_0			15.85731748826123			61.22634512720775			6.242508926184837			
C_0			55.39320797948601			51.45853708370055			45.152486303869665			
C_0			13.66278639761169			86.5349468563703			19.464605153679233			
C_0			47.59650777617832			89.60035673880621			44.26702304110731			
C_0			58.980930923194414			80.94281799215086			42.51896702763728			
C_0			49.20305623135376			83.09705786181704			45.01359916684734			
C_0			38.852089709629865			60.23485445145393			10.479873803984733			
C_0			21.796455947513223			28.28227501827328			5.078301280484127			
C_0			12.463532922111767			76.25125323849446			25.576951513250815			
C_0			52.843713026508404			35.65327650343793			21.87572498785089			
C_0			92.21310009141523			69.23803130341466			39.146569094974666			
C_0			67.9031922189129			48.894250808189476			22.85507899946208			
C_0			13.127839476754904			2.6268077247729447			0.9380502184801208			
C_0			14.78639339461127			22.03639914400174			26.80381254984299			
C_0			71.0269562425542			53.95885174114655			25.575713861247387			
C_0			78.32396170756851			19.51397580810489			0.026649341115739578			
C_0			51.92567013764118			13.705381008569155			39.08403921689147			
C_0			79.60480843025546			34.91577631127031			21.155948674739744			
C_0			40.984260251294955			86.05459680268687			34.15974804180941			
C_0			48.187812287391736			98.08619550459446			10.058518615890458			
C_0			87.8370717576834			8.554859782991159			52.91154103405454			
C_0			19.24759488764504			0.16763588305973393			29.35562137318341			
C_0			60.02398716766129			53.39971367806484			54.23050352265535			
C_0			67.02087755639734			88.09437270825043			48.278393661359885			
C_0			93.69346411177372			4.656139364338655			37.79482497474006			
C_0			71.44565096076646			34.13770889440602			30.419535645395346			
C_0			4.109086706913111			71.01157087143604			53.06338003495894			
C_0			25.259191964519673			63.00482178801709			24.734569635361847			
C_0			78.16251513417943			20.10098010235598			6.371576477270685			
C_0			12.882002842787776			55.58390044969107			12.766952092940988			
C_0			69.25019471855047			79.8206311550966			29.963383870507382			
C_0			77.85361176608347			85.9934640555217			6.8090590012777845			
C_0			51.471579310436354			38.518218478685974			37.846374416480046			
C_0			58.054227800306876			36.87777352459091			32.63537218531805			
C_0			17.865356885997464			49.463984504968344			6.976301645674061			
C_0			55.96379078222823			52.05783185176088			10.882101993493817			
C_0			87.28747933223656			72.5666282056062			28.00256644294043			
C_0			32.657872715611546			15.308654098985963			29.46940785507001			
C_0			49.27125682824669			97.87850526105048			39.56890234467927			
C_0			12.793294562295783			94.2022481884832			23.017392459321627			
C_0			42.27774246293761			83.33793617594195			49.51831347063707			
C_0			51.13791377402878			68.39614037053568			49.6855583663313			
C_0			66.57388881746067			89.5624850090464			40.603082518747684			
C_0			77.12686034973409			99.85200626107198			31.804624873591397			
C_0			55.09231123872092			62.958002308322186			22.620425407102648			
C_0			33.69977284379185			41.42443909467171			50.11805334791333			
C_0			96.09295325037694			35.654030290310494			16.973780141778576			
C_0			74.70168879357168			11.307732212801506			25.702460436222136			
C_0			96.549190490149			77.85576479012404			37.95871702788751			
C_0			91.26533045363728			80.9683237701104			26.73324333044625			
C_0			66.28311978406423			65.94804516462679			14.632188849896762			
C_0			25.523271196010953			96.36824818609834			3.568023539343422			
C_0			18.035536432844776			16.22997459984141			50.872967000567435			
C_0			11.763429611615187			23.82856681037386			20.57010526945664			
C_0			13.205216131411968			16.79060736610916			22.873162063417148			
C_0			44.29934741819709			82.32142026896922			14.172994580119603			
C_0			77.62917977563399			69.65958925253011			42.08524832707256			
C_0			89.50598865752013			34.83281380568438			11.39506275950486			
C_0			57.21621860032937			37.3035475450732			29.40457175787494			
C_0			91.42560794600223			78.99320891124455			1.178769329259411			
C_0			26.729772670175105			68.93164587332943			28.104375283340108			
C_0			32.355207553361545			82.95593532435295			38.471812385880355			
C_0			92.90511965493273			89.99419573846819			30.181293573162392			
C_0			69.53471215337981			74.38323742927456			40.42076737250336			
C_0			78.66456381995528			74.01959547882677			21.77999852599707			
C_0			32.81093180601398			76.39034249131153			16.82348311116979			
C_0			16.611895271656152			47.64349981462515			13.686645090711778			
C_0			25.5198393676994			92.31985755545834			12.066475955266837			
C_0			53.85490744600973			74.65958083404996			22.0555163566688			
C_0			36.4236956108714			34.06565038727638			50.26322309351001			
C_0			21.21996278081254			79.00028970253543			10.617220193885908			
C_0			0.4927167768558708			34.741282930595375			19.97463134659151			
C_0			68.4707792714978			83.92814262999184			40.69088485159904			
C_0			23.522319058360615			30.154397519049287			43.833646830960134			
C_0			18.174601036403647			61.1986697244393			21.090889614030097			
C_0			80.09446765207552			12.85995298490721			1.3134625568737395			
C_0			77.7618512423606			93.83205549790414			17.123087896512097			
C_0			48.54335071732446			3.6914525891089722			44.722379206639054			
C_0			9.310262151449074			22.077530186637684			50.327681299433074			
C_0			13.881865841872829			75.33480331630243			23.41293703151608			
C_0			22.872826417115217			31.124441581711974			3.4390856430462358			
C_0			50.560075757867345			64.36292809493928			38.10404766194713			
C_0			75.55430238473207			55.825533380688164			29.219074667399966			
C_0			51.9492313407879			60.820161937597405			43.9644384566865			
C_0			78.5868259903528			88.78031374416851			7.505983621571702			
C_0			47.275451058861265			66.87700107020301			52.576563785235884			
C_0			22.075497861264743			5.94934598153328			27.42278557826831			
C_0			47.12636388834902			15.901024672361068			41.812087614738644			